 Entering Gaussian System, Link 0=g16
 Input=gau.gjf
 Output=gau.log
 Initial command:
 /opt/g16/l1.exe "/root/scratch/Gau-277.inp" -scrdir="/root/scratch/"
 Entering Link 1 = /opt/g16/l1.exe PID=       279.
  
 Copyright (c) 1988,1990,1992,1993,1995,1998,2003,2009,2016,
            Gaussian, Inc.  All Rights Reserved.
  
 This is part of the Gaussian(R) 16 program.  It is based on
 the Gaussian(R) 09 system (copyright 2009, Gaussian, Inc.),
 the Gaussian(R) 03 system (copyright 2003, Gaussian, Inc.),
 the Gaussian(R) 98 system (copyright 1998, Gaussian, Inc.),
 the Gaussian(R) 94 system (copyright 1995, Gaussian, Inc.),
 the Gaussian 92(TM) system (copyright 1992, Gaussian, Inc.),
 the Gaussian 90(TM) system (copyright 1990, Gaussian, Inc.),
 the Gaussian 88(TM) system (copyright 1988, Gaussian, Inc.),
 the Gaussian 86(TM) system (copyright 1986, Carnegie Mellon
 University), and the Gaussian 82(TM) system (copyright 1983,
 Carnegie Mellon University). Gaussian is a federally registered
 trademark of Gaussian, Inc.
  
 This software contains proprietary and confidential information,
 including trade secrets, belonging to Gaussian, Inc.
  
 This software is provided under written license and may be
 used, copied, transmitted, or stored only in accord with that
 written license.
  
 The following legend is applicable only to US Government
 contracts under FAR:
  
                    RESTRICTED RIGHTS LEGEND
  
 Use, reproduction and disclosure by the US Government is
 subject to restrictions as set forth in subparagraphs (a)
 and (c) of the Commercial Computer Software - Restricted
 Rights clause in FAR 52.227-19.
  
 Gaussian, Inc.
 340 Quinnipiac St., Bldg. 40, Wallingford CT 06492
  
  
 ---------------------------------------------------------------
 Warning -- This program may not be used in any manner that
 competes with the business of Gaussian, Inc. or will provide
 assistance to any competitor of Gaussian, Inc.  The licensee
 of this program is prohibited from giving any competitor of
 Gaussian, Inc. access to this program.  By using this program,
 the user acknowledges that Gaussian, Inc. is engaged in the
 business of creating and licensing software in the field of
 computational chemistry and represents and warrants to the
 licensee that it is not a competitor of Gaussian, Inc. and that
 it will not use this program in any manner prohibited above.
 ---------------------------------------------------------------
  

 Cite this work as:
 Gaussian 16, Revision A.03,
 M. J. Frisch, G. W. Trucks, H. B. Schlegel, G. E. Scuseria, 
 M. A. Robb, J. R. Cheeseman, G. Scalmani, V. Barone, 
 G. A. Petersson, H. Nakatsuji, X. Li, M. Caricato, A. V. Marenich, 
 J. Bloino, B. G. Janesko, R. Gomperts, B. Mennucci, H. P. Hratchian, 
 J. V. Ortiz, A. F. Izmaylov, J. L. Sonnenberg, D. Williams-Young, 
 F. Ding, F. Lipparini, F. Egidi, J. Goings, B. Peng, A. Petrone, 
 T. Henderson, D. Ranasinghe, V. G. Zakrzewski, J. Gao, N. Rega, 
 G. Zheng, W. Liang, M. Hada, M. Ehara, K. Toyota, R. Fukuda, 
 J. Hasegawa, M. Ishida, T. Nakajima, Y. Honda, O. Kitao, H. Nakai, 
 T. Vreven, K. Throssell, J. A. Montgomery, Jr., J. E. Peralta, 
 F. Ogliaro, M. J. Bearpark, J. J. Heyd, E. N. Brothers, K. N. Kudin, 
 V. N. Staroverov, T. A. Keith, R. Kobayashi, J. Normand, 
 K. Raghavachari, A. P. Rendell, J. C. Burant, S. S. Iyengar, 
 J. Tomasi, M. Cossi, J. M. Millam, M. Klene, C. Adamo, R. Cammi, 
 J. W. Ochterski, R. L. Martin, K. Morokuma, O. Farkas, 
 J. B. Foresman, and D. J. Fox, Gaussian, Inc., Wallingford CT, 2016.
 
 ******************************************
 Gaussian 16:  ES64L-G16RevA.03 25-Dec-2016
                 7-Aug-2024 
 ******************************************
 %mem=10GB
 %OldChk=old_gau.chk
 %chk=gau.chk
 %nprocshared=6
 Will use up to    6 processors via shared memory.
 Copying data from "old_gau.chk" to current chk file "gau.chk"
 IOpt=  2 FromEx=T IUOpen= 4 IOptOp= 5 NList=   0 IFRang= 0 IUIn= 4 IUOut= 2.
 ----------------------------------------------------------------------
 #P b3lyp/6-311+g(d,p) em=gd3 volume=tight IOp(5/33=2, 3/33=1) Guess=re
 ad Geom=allcheck SCF=Restart Pop=Full
 ----------------------------------------------------------------------
 1/29=7,38=1,172=1/1;
 2/12=2,40=1/2;
 3/5=4,6=6,7=111,11=2,14=-4,25=1,30=1,33=1,74=-5,124=31/1,2,3;
 4/5=8,6=200000000/1;
 5/5=2,33=2/2;
 6/7=3,28=1,44=1,45=100/1,4;
 99/5=1,9=1/99;
 Leave Link    1 at Wed Aug  7 16:52:34 2024, MaxMem=  1342177280 cpu:               0.2 elap:               0.1
 (Enter /opt/g16/l101.exe)
 Structure from the checkpoint file:  "gau.chk"
 ---------
 ep-15_vum
 ---------
 Charge =  0 Multiplicity = 1
 Redundant internal coordinates found in file.  (old form).
 C,0,-0.6477783244,-0.0634178991,-0.0073702132
 C,0,0.8471485349,0.107371867,-0.0038614328
 O,0,1.4327428801,1.0460738404,-0.4841226081
 H,0,-1.0068619135,-0.1518423674,1.0240862916
 H,0,-1.1335465123,0.7768861828,-0.5034058035
 H,0,-0.9062679107,-1.0007748079,-0.5125509606
 H,0,1.4145642477,-0.7142968112,0.4872237348
 Recover connectivity data from disk.
 ITRead=  0  0  0  0  0  0  0
 MicOpt= -1 -1 -1 -1 -1 -1 -1
                           ----------------------------
                           !    Current Parameters    !
                           ! (Angstroms and Degrees)  !
 --------------------------                            --------------------------
 ! Name  Definition              Value                                          !
 --------------------------------------------------------------------------------
 ! R1    R(1,2)                  1.5047                                         !
 ! R2    R(1,4)                  1.0957                                         !
 ! R3    R(1,5)                  1.09                                           !
 ! R4    R(1,6)                  1.0957                                         !
 ! R5    R(2,3)                  1.2061                                         !
 ! R6    R(2,7)                  1.1128                                         !
 ! A1    A(2,1,4)              109.4238                                         !
 ! A2    A(2,1,5)              110.8749                                         !
 ! A3    A(2,1,6)              109.4238                                         !
 ! A4    A(4,1,5)              110.1537                                         !
 ! A5    A(4,1,6)              106.7172                                         !
 ! A6    A(5,1,6)              110.1537                                         !
 ! A7    A(1,2,3)              124.7356                                         !
 ! A8    A(1,2,7)              115.0766                                         !
 ! A9    A(3,2,7)              120.1877                                         !
 ! D1    D(4,1,2,3)           -121.7001                                         !
 ! D2    D(4,1,2,7)             58.2999                                         !
 ! D3    D(5,1,2,3)              0.0                                            !
 ! D4    D(5,1,2,7)           -180.0                                            !
 ! D5    D(6,1,2,3)            121.7001                                         !
 ! D6    D(6,1,2,7)            -58.2999                                         !
 --------------------------------------------------------------------------------
 NAtoms=      7 NQM=        7 NQMF=       0 NMMI=      0 NMMIF=      0
                NMic=       0 NMicF=      0.
                    Isotopes and Nuclear Properties:
 (Nuclear quadrupole moments (NQMom) in fm**2, nuclear magnetic moments (NMagM)
  in nuclear magnetons)

  Atom         1           2           3           4           5           6           7
 IAtWgt=          12          12          16           1           1           1           1
 AtmWgt=  12.0000000  12.0000000  15.9949146   1.0078250   1.0078250   1.0078250   1.0078250
 NucSpn=           0           0           0           1           1           1           1
 AtZEff=   3.6000000   3.6000000   5.6000000   1.0000000   1.0000000   1.0000000   1.0000000
 NQMom=    0.0000000   0.0000000   0.0000000   0.0000000   0.0000000   0.0000000   0.0000000
 NMagM=    0.0000000   0.0000000   0.0000000   2.7928460   2.7928460   2.7928460   2.7928460
 AtZNuc=   6.0000000   6.0000000   8.0000000   1.0000000   1.0000000   1.0000000   1.0000000
 Leave Link  101 at Wed Aug  7 16:52:35 2024, MaxMem=  1342177280 cpu:               2.2 elap:               0.6
 (Enter /opt/g16/l202.exe)
                          Input orientation:                          
 ---------------------------------------------------------------------
 Center     Atomic      Atomic             Coordinates (Angstroms)
 Number     Number       Type             X           Y           Z
 ---------------------------------------------------------------------
      1          6           0       -0.647778   -0.063418   -0.007370
      2          6           0        0.847149    0.107372   -0.003861
      3          8           0        1.432743    1.046074   -0.484123
      4          1           0       -1.006862   -0.151842    1.024086
      5          1           0       -1.133547    0.776886   -0.503406
      6          1           0       -0.906268   -1.000775   -0.512551
      7          1           0        1.414564   -0.714297    0.487224
 ---------------------------------------------------------------------
                    Distance matrix (angstroms):
                    1          2          3          4          5
     1  C    0.000000
     2  C    1.504655   0.000000
     3  O    2.405584   1.206123   0.000000
     4  H    1.095747   2.135702   3.108274   0.000000
     5  H    1.090015   2.149639   2.580441   1.792155   0.000000
     6  H    1.095747   2.135702   3.108274   1.758425   1.792155
     7  H    2.218451   1.112773   2.010659   2.543203   3.114136
                    6          7
     6  H    0.000000
     7  H    2.543203   0.000000
 Stoichiometry    C2H4O
 Framework group  C1[X(C2H4O)]
 Deg. of freedom    15
 Full point group                 C1      NOp   1
 RotChk:  IX=0 Diff= 2.54D-09
 Largest Abelian subgroup         C1      NOp   1
 Largest concise Abelian subgroup C1      NOp   1
                         Standard orientation:                         
 ---------------------------------------------------------------------
 Center     Atomic      Atomic             Coordinates (Angstroms)
 Number     Number       Type             X           Y           Z
 ---------------------------------------------------------------------
      1          6           0        1.168340   -0.148502    0.000000
      2          6           0       -0.233754    0.397502    0.000000
      3          8           0       -1.233824   -0.276734    0.000000
      4          1           0        1.704942    0.225269    0.879213
      5          1           0        1.160690   -1.238491   -0.000000
      6          1           0        1.704942    0.225269   -0.879213
      7          1           0       -0.307496    1.507829    0.000000
 ---------------------------------------------------------------------
 Rotational constants (GHZ):          57.1396883          10.1323931           9.0885821
 Leave Link  202 at Wed Aug  7 16:52:35 2024, MaxMem=  1342177280 cpu:               0.4 elap:               0.1
 (Enter /opt/g16/l301.exe)
 Standard basis: 6-311+G(d,p) (5D, 7F)
                         Coordinates in L301:                         
 ---------------------------------------------------------------------
 Center     Atomic      Atomic             Coordinates (Angstroms)
 Number     Number       Type             X           Y           Z
 ---------------------------------------------------------------------
      1          6           0        1.168340   -0.148502    0.000000
      2          6           0       -0.233754    0.397502   -0.000000
      3          8           0       -1.233824   -0.276734    0.000000
      4          1           0        1.704942    0.225269    0.879213
      5          1           0        1.160690   -1.238491   -0.000000
      6          1           0        1.704942    0.225269   -0.879213
      7          1           0       -0.307496    1.507829    0.000000
 ---------------------------------------------------------------------
 FixB: optimizing general contractions.
 Ernie: Thresh=  0.10000D-02 Tol=  0.10000D-05 Strict=F.
 IA=     1 ShT= 0 ShC= 0 NL=   1 NS=   0.
 IA=     1 L=0 SC=0 ISt=    0 NBk=    0 NP=    0 IndPr=    0.
 IA=     1 ShT= 1 ShC= 0 NL=   4 NS=   3.
 IA=     1 L=1 SC=0 ISt=    0 NBk=    0 NP=    0 IndPr=    0.
 IA=     1 ShT= 2 ShC= 2 NL=   1 NS=   1.
 IA=     1 L=2 SC=2 ISt=    0 NBk=    0 NP=    0 IndPr=    0.
 IA=     2 ShT= 0 ShC= 0 NL=   1 NS=   0.
 IA=     2 L=0 SC=0 ISt=    0 NBk=    0 NP=    0 IndPr=    0.
 IA=     2 ShT= 1 ShC= 0 NL=   4 NS=   3.
 IA=     2 L=1 SC=0 ISt=    0 NBk=    0 NP=    0 IndPr=    0.
 IA=     2 ShT= 2 ShC= 2 NL=   1 NS=   1.
 IA=     2 L=2 SC=2 ISt=    0 NBk=    0 NP=    0 IndPr=    0.
 IA=     3 ShT= 0 ShC= 0 NL=   1 NS=   0.
 IA=     3 L=0 SC=0 ISt=    0 NBk=    0 NP=    0 IndPr=    0.
 IA=     3 ShT= 1 ShC= 0 NL=   4 NS=   3.
 IA=     3 L=1 SC=0 ISt=    0 NBk=    0 NP=    0 IndPr=    0.
 IA=     3 ShT= 2 ShC= 2 NL=   1 NS=   1.
 IA=     3 L=2 SC=2 ISt=    0 NBk=    0 NP=    0 IndPr=    0.
 IA=     4 ShT= 0 ShC= 0 NL=   3 NS=   2.
 IA=     4 L=0 SC=0 ISt=    0 NBk=    0 NP=    0 IndPr=    0.
 IA=     4 ShT= 1 ShC= 1 NL=   1 NS=   1.
 IA=     4 L=1 SC=1 ISt=    0 NBk=    0 NP=    0 IndPr=    0.
 IA=     5 ShT= 0 ShC= 0 NL=   3 NS=   2.
 IA=     5 L=0 SC=0 ISt=    0 NBk=    0 NP=    0 IndPr=    0.
 IA=     5 ShT= 1 ShC= 1 NL=   1 NS=   1.
 IA=     5 L=1 SC=1 ISt=    0 NBk=    0 NP=    0 IndPr=    0.
 IA=     6 ShT= 0 ShC= 0 NL=   3 NS=   2.
 IA=     6 L=0 SC=0 ISt=    0 NBk=    0 NP=    0 IndPr=    0.
 IA=     6 ShT= 1 ShC= 1 NL=   1 NS=   1.
 IA=     6 L=1 SC=1 ISt=    0 NBk=    0 NP=    0 IndPr=    0.
 IA=     7 ShT= 0 ShC= 0 NL=   3 NS=   2.
 IA=     7 L=0 SC=0 ISt=    0 NBk=    0 NP=    0 IndPr=    0.
 IA=     7 ShT= 1 ShC= 1 NL=   1 NS=   1.
 IA=     7 L=1 SC=1 ISt=    0 NBk=    0 NP=    0 IndPr=    0.
 LdAtmC:  AtmChg=     6.000000     6.000000     8.000000     1.000000     1.000000
 LdAtmC:  AtmChg=     1.000000     1.000000
 AtZEff=     -3.6000000     -3.6000000     -5.6000000     -1.0000000     -1.0000000
 AtZEff=     -1.0000000     -1.0000000
 NEqShl: 
              1
     1            1
     2            2
     3            3
     4            4
     5            5
     6            6
     7            7
     8            8
     9            9
    10           10
    11           11
    12           12
    13           13
    14           14
    15           15
    16           16
    17           17
    18           18
    19           19
    20           20
    21           21
    22           22
    23           23
    24           24
    25           25
    26           26
    27           27
    28           28
    29           29
    30           30
    31           31
    32           32
    33           33
    34           34
 NEqBas: 
              1
     1            1
     2            2
     3            3
     4            4
     5            5
     6            6
     7            7
     8            8
     9            9
    10           10
    11           11
    12           12
    13           13
    14           14
    15           15
    16           16
    17           17
    18           18
    19           19
    20           20
    21           21
    22           22
    23           23
    24           24
    25           25
    26           26
    27           27
    28           28
    29           29
    30           30
    31           31
    32           32
    33           33
    34           34
    35           35
    36           36
    37           37
    38           38
    39           39
    40           40
    41           41
    42           42
    43           43
    44           44
    45           45
    46           46
    47           47
    48           48
    49           49
    50           50
    51           51
    52           52
    53           53
    54           54
    55           55
    56           56
    57           57
    58           58
    59           59
    60           60
    61           61
    62           62
    63           63
    64           64
    65           65
    66           66
    67           67
    68           68
    69           69
    70           70
    71           71
    72           72
    73           73
    74           74
    75           75
    76           76
    77           77
    78           78
    79           79
    80           80
    81           81
    82           82
    83           83
    84           84
    85           85
    86           86
    87           87
    88           88
    89           89
    90           90
    91           91
    92           92
    93           93
 There are    93 symmetry adapted cartesian basis functions of A   symmetry.
 Order= 1
 Reordered character table:
              1            2
     1            1            1
 NEqShl: 
              1
     1            1
     2            2
     3            3
     4            4
     5            5
     6            6
     7            7
     8            8
     9            9
    10           10
    11           11
    12           12
    13           13
    14           14
    15           15
    16           16
    17           17
    18           18
    19           19
    20           20
    21           21
    22           22
    23           23
    24           24
    25           25
    26           26
    27           27
    28           28
    29           29
    30           30
    31           31
    32           32
    33           33
    34           34
 NEqBas: 
              1
     1            1
     2            2
     3            3
     4            4
     5            5
     6            6
     7            7
     8            8
     9            9
    10           10
    11           11
    12           12
    13           13
    14           14
    15           15
    16           16
    17           17
    18           18
    19           19
    20           20
    21           21
    22           22
    23           23
    24           24
    25           25
    26           26
    27           27
    28           28
    29           29
    30           30
    31           31
    32           32
    33           33
    34           34
    35           35
    36           36
    37           37
    38           38
    39           39
    40           40
    41           41
    42           42
    43           43
    44           44
    45           45
    46           46
    47           47
    48           48
    49           49
    50           50
    51           51
    52           52
    53           53
    54           54
    55           55
    56           56
    57           57
    58           58
    59           59
    60           60
    61           61
    62           62
    63           63
    64           64
    65           65
    66           66
    67           67
    68           68
    69           69
    70           70
    71           71
    72           72
    73           73
    74           74
    75           75
    76           76
    77           77
    78           78
    79           79
    80           80
    81           81
    82           82
    83           83
    84           84
    85           85
    86           86
    87           87
    88           88
    89           89
    90           90
 There are    90 symmetry adapted basis functions of A   symmetry.
 Order= 1
 Reordered character table:
              1            2
     1            1            1
    90 basis functions,   140 primitive gaussians,    93 cartesian basis functions
    12 alpha electrons       12 beta electrons
       nuclear repulsion energy        69.6701110046 Hartrees.
 IS=     1 IAt=     1 ISR=     1 T=0 IP=      1 IndIP=      1 IndIPD=      0 C=  7.782018D-01  0.000000D+00                             NZ=T
 IS=     1 IAt=     1 ISR=     1 T=0 IP=      2 IndIP=      2 IndIPD=      1 C=  1.448695D+00  0.000000D+00                             NZ=T
 IS=     1 IAt=     1 ISR=     1 T=0 IP=      3 IndIP=      3 IndIPD=      2 C=  2.383089D+00  0.000000D+00                             NZ=T
 IS=     1 IAt=     1 ISR=     1 T=0 IP=      4 IndIP=      4 IndIPD=      3 C=  3.200089D+00  0.000000D+00                             NZ=T
 IS=     1 IAt=     1 ISR=     1 T=0 IP=      5 IndIP=      5 IndIPD=      4 C=  3.013004D+00  0.000000D+00                             NZ=T
 IS=     1 IAt=     1 ISR=     1 T=0 IP=      6 IndIP=      6 IndIPD=      5 C=  2.475986D-01  0.000000D+00                             NZ=T
 IS=     2 IAt=     1 ISR=     2 T=1 IP=      1 IndIP=      7 IndIPD=      0 C=  8.006285D-01  2.573592D+00                             NZ=T
 IS=     2 IAt=     1 ISR=     2 T=1 IP=      2 IndIP=      8 IndIPD=      1 C=  2.127420D+00  2.408248D+00                             NZ=T
 IS=     2 IAt=     1 ISR=     2 T=1 IP=      3 IndIP=      9 IndIPD=      2 C= -2.867911D-03  1.865281D+00                             NZ=T
 IS=     3 IAt=     1 ISR=     3 T=1 IP=      1 IndIP=     10 IndIPD=      0 C=  4.132166D-01  5.746273D-01                             NZ=T
 IS=     4 IAt=     1 ISR=     4 T=1 IP=      1 IndIP=     11 IndIPD=      0 C=  1.679761D-01  1.281846D-01                             NZ=T
 IS=     5 IAt=     1 ISR=     5 T=1 IP=      1 IndIP=     12 IndIPD=      0 C=  6.823633D-02  2.856161D-02                             NZ=T
 IS=     6 IAt=     1 ISR=     6 T=2 IP=      1 IndIP=     13 IndIPD=      1 C=  0.000000D+00  0.000000D+00  7.251278D-01  0.000000D+00 NZ=T
 IS=     7 IAt=     2 ISR=     1 T=0 IP=      1 IndIP=     14 IndIPD=      0 C=  7.782018D-01  0.000000D+00                             NZ=T
 IS=     7 IAt=     2 ISR=     1 T=0 IP=      2 IndIP=     15 IndIPD=      1 C=  1.448695D+00  0.000000D+00                             NZ=T
 IS=     7 IAt=     2 ISR=     1 T=0 IP=      3 IndIP=     16 IndIPD=      2 C=  2.383089D+00  0.000000D+00                             NZ=T
 IS=     7 IAt=     2 ISR=     1 T=0 IP=      4 IndIP=     17 IndIPD=      3 C=  3.200089D+00  0.000000D+00                             NZ=T
 IS=     7 IAt=     2 ISR=     1 T=0 IP=      5 IndIP=     18 IndIPD=      4 C=  3.013004D+00  0.000000D+00                             NZ=T
 IS=     7 IAt=     2 ISR=     1 T=0 IP=      6 IndIP=     19 IndIPD=      5 C=  2.475986D-01  0.000000D+00                             NZ=T
 IS=     8 IAt=     2 ISR=     2 T=1 IP=      1 IndIP=     20 IndIPD=      0 C=  8.006285D-01  2.573592D+00                             NZ=T
 IS=     8 IAt=     2 ISR=     2 T=1 IP=      2 IndIP=     21 IndIPD=      1 C=  2.127420D+00  2.408248D+00                             NZ=T
 IS=     8 IAt=     2 ISR=     2 T=1 IP=      3 IndIP=     22 IndIPD=      2 C= -2.867911D-03  1.865281D+00                             NZ=T
 IS=     9 IAt=     2 ISR=     3 T=1 IP=      1 IndIP=     23 IndIPD=      0 C=  4.132166D-01  5.746273D-01                             NZ=T
 IS=    10 IAt=     2 ISR=     4 T=1 IP=      1 IndIP=     24 IndIPD=      0 C=  1.679761D-01  1.281846D-01                             NZ=T
 IS=    11 IAt=     2 ISR=     5 T=1 IP=      1 IndIP=     25 IndIPD=      0 C=  6.823633D-02  2.856161D-02                             NZ=T
 IS=    12 IAt=     2 ISR=     6 T=2 IP=      1 IndIP=     26 IndIPD=      2 C=  0.000000D+00  0.000000D+00  7.251278D-01  0.000000D+00 NZ=T
 IS=    13 IAt=     3 ISR=     1 T=0 IP=      1 IndIP=     27 IndIPD=      0 C=  1.205013D+00  0.000000D+00                             NZ=T
 IS=    13 IAt=     3 ISR=     1 T=0 IP=      2 IndIP=     28 IndIPD=      1 C=  2.216205D+00  0.000000D+00                             NZ=T
 IS=    13 IAt=     3 ISR=     1 T=0 IP=      3 IndIP=     29 IndIPD=      2 C=  3.627452D+00  0.000000D+00                             NZ=T
 IS=    13 IAt=     3 ISR=     1 T=0 IP=      4 IndIP=     30 IndIPD=      3 C=  4.888452D+00  0.000000D+00                             NZ=T
 IS=    13 IAt=     3 ISR=     1 T=0 IP=      5 IndIP=     31 IndIPD=      4 C=  4.835721D+00  0.000000D+00                             NZ=T
 IS=    13 IAt=     3 ISR=     1 T=0 IP=      6 IndIP=     32 IndIPD=      5 C=  5.382295D-01  0.000000D+00                             NZ=T
 IS=    14 IAt=     3 ISR=     2 T=1 IP=      1 IndIP=     33 IndIPD=      0 C=  1.341958D+00  5.584018D+00                             NZ=T
 IS=    14 IAt=     3 ISR=     2 T=1 IP=      2 IndIP=     34 IndIPD=      1 C=  3.587114D+00  5.733366D+00                             NZ=T
 IS=    14 IAt=     3 ISR=     2 T=1 IP=      3 IndIP=     35 IndIPD=      2 C= -5.123468D-03  4.332955D+00                             NZ=T
 IS=    15 IAt=     3 ISR=     3 T=1 IP=      1 IndIP=     36 IndIPD=      0 C=  6.616592D-01  1.259352D+00                             NZ=T
 IS=    16 IAt=     3 ISR=     4 T=1 IP=      1 IndIP=     37 IndIPD=      0 C=  2.562092D-01  2.590684D-01                             NZ=T
 IS=    17 IAt=     3 ISR=     5 T=1 IP=      1 IndIP=     38 IndIPD=      0 C=  1.116999D-01  6.493980D-02                             NZ=T
 IS=    18 IAt=     3 ISR=     6 T=2 IP=      1 IndIP=     39 IndIPD=      3 C=  0.000000D+00  0.000000D+00  2.577026D+00  0.000000D+00 NZ=T
 IS=    19 IAt=     4 ISR=     1 T=0 IP=      1 IndIP=     40 IndIPD=      0 C=  2.550693D-01  0.000000D+00                             NZ=T
 IS=    19 IAt=     4 ISR=     1 T=0 IP=      2 IndIP=     41 IndIPD=      1 C=  4.601087D-01  0.000000D+00                             NZ=T
 IS=    19 IAt=     4 ISR=     1 T=0 IP=      3 IndIP=     42 IndIPD=      2 C=  6.783214D-01  0.000000D+00                             NZ=T
 IS=    20 IAt=     4 ISR=     2 T=0 IP=      1 IndIP=     43 IndIPD=      0 C=  3.073714D-01  0.000000D+00                             NZ=T
 IS=    21 IAt=     4 ISR=     3 T=0 IP=      1 IndIP=     44 IndIPD=      0 C=  1.293356D-01  0.000000D+00                             NZ=T
 IS=    22 IAt=     4 ISR=     4 T=1 IP=      1 IndIP=     45 IndIPD=      0 C=  0.000000D+00  9.948708D-01                             NZ=T
 IS=    23 IAt=     5 ISR=     1 T=0 IP=      1 IndIP=     46 IndIPD=      0 C=  2.550693D-01  0.000000D+00                             NZ=T
 IS=    23 IAt=     5 ISR=     1 T=0 IP=      2 IndIP=     47 IndIPD=      1 C=  4.601087D-01  0.000000D+00                             NZ=T
 IS=    23 IAt=     5 ISR=     1 T=0 IP=      3 IndIP=     48 IndIPD=      2 C=  6.783214D-01  0.000000D+00                             NZ=T
 IS=    24 IAt=     5 ISR=     2 T=0 IP=      1 IndIP=     49 IndIPD=      0 C=  3.073714D-01  0.000000D+00                             NZ=T
 IS=    25 IAt=     5 ISR=     3 T=0 IP=      1 IndIP=     50 IndIPD=      0 C=  1.293356D-01  0.000000D+00                             NZ=T
 IS=    26 IAt=     5 ISR=     4 T=1 IP=      1 IndIP=     51 IndIPD=      0 C=  0.000000D+00  9.948708D-01                             NZ=T
 IS=    27 IAt=     6 ISR=     1 T=0 IP=      1 IndIP=     52 IndIPD=      0 C=  2.550693D-01  0.000000D+00                             NZ=T
 IS=    27 IAt=     6 ISR=     1 T=0 IP=      2 IndIP=     53 IndIPD=      1 C=  4.601087D-01  0.000000D+00                             NZ=T
 IS=    27 IAt=     6 ISR=     1 T=0 IP=      3 IndIP=     54 IndIPD=      2 C=  6.783214D-01  0.000000D+00                             NZ=T
 IS=    28 IAt=     6 ISR=     2 T=0 IP=      1 IndIP=     55 IndIPD=      0 C=  3.073714D-01  0.000000D+00                             NZ=T
 IS=    29 IAt=     6 ISR=     3 T=0 IP=      1 IndIP=     56 IndIPD=      0 C=  1.293356D-01  0.000000D+00                             NZ=T
 IS=    30 IAt=     6 ISR=     4 T=1 IP=      1 IndIP=     57 IndIPD=      0 C=  0.000000D+00  9.948708D-01                             NZ=T
 IS=    31 IAt=     7 ISR=     1 T=0 IP=      1 IndIP=     58 IndIPD=      0 C=  2.550693D-01  0.000000D+00                             NZ=T
 IS=    31 IAt=     7 ISR=     1 T=0 IP=      2 IndIP=     59 IndIPD=      1 C=  4.601087D-01  0.000000D+00                             NZ=T
 IS=    31 IAt=     7 ISR=     1 T=0 IP=      3 IndIP=     60 IndIPD=      2 C=  6.783214D-01  0.000000D+00                             NZ=T
 IS=    32 IAt=     7 ISR=     2 T=0 IP=      1 IndIP=     61 IndIPD=      0 C=  3.073714D-01  0.000000D+00                             NZ=T
 IS=    33 IAt=     7 ISR=     3 T=0 IP=      1 IndIP=     62 IndIPD=      0 C=  1.293356D-01  0.000000D+00                             NZ=T
 IS=    34 IAt=     7 ISR=     4 T=1 IP=      1 IndIP=     63 IndIPD=      0 C=  0.000000D+00  9.948708D-01                             NZ=T
 IExCor=  402 DFT=T Ex+Corr=B3LYP ExCW=0 ScaHFX=  0.200000
 ScaDFX=  0.800000  0.720000  1.000000  0.810000 ScalE2=  1.000000  1.000000
 IRadAn=      5 IRanWt=     -1 IRanGd=            0 ICorTp=0 IEmpDi=131
 NAtoms=    7 NActive=    7 NUniq=    7 SFac= 1.00D+00 NAtFMM=   60 NAOKFM=F Big=F
 Integral buffers will be    131072 words long.
 Raffenetti 2 integral format.
 Two-electron integral symmetry is turned on.
 R6Disp:  Grimme-D3 Dispersion energy=       -0.0019239591 Hartrees.
 Nuclear repulsion after empirical dispersion term =       69.6681870456 Hartrees.
 Leave Link  301 at Wed Aug  7 16:52:35 2024, MaxMem=  1342177280 cpu:               0.5 elap:               0.1
 (Enter /opt/g16/l302.exe)
 NPDir=0 NMtPBC=     1 NCelOv=     1 NCel=       1 NClECP=     1 NCelD=      1
         NCelK=      1 NCelE2=     1 NClLst=     1 CellRange=     0.0.
 One-electron integrals computed using PRISM.
 One-electron integral symmetry used in STVInt
 Entering OneElI...
 Calculate overlap and kinetic energy integrals
    NBasis =  90  MinDer = 0  MaxDer = 0
 Requested accuracy = 0.1000D-12
 PrmmSu-InSpLW:  IPartL=    0 NPrtUS=    6 NPrtUL=    1 DoSpLW=F IThBeg=    0 IThEnd=    5 NThAct=    6.
 PrsmSu:  NPrtUS=   6 ThrOK=T IAlg=1 NPAlg=2 LenDen=           0 ISkipM=0 DoSpLW=F IThBeg=    0 IThEnd=    5.
 Prism:   IPart=     0 DynPar=F LinDyn=F Incr=           1.
 PRISM was handed   223665779 working-precision words and   595 shell-pairs
 PRISM was handed   223665779 working-precision words and   595 shell-pairs
 PRISM was handed   223665779 working-precision words and   595 shell-pairs
 PRISM was handed   223665779 working-precision words and   595 shell-pairs
 PRISM was handed   223665779 working-precision words and   595 shell-pairs
 PRISM was handed   223665779 working-precision words and   595 shell-pairs
 IPart=  4 NShTot=          87 NBatch=          22 AvBLen=         4.0
 IPart=  5 NShTot=          87 NBatch=          22 AvBLen=         4.0
 IPart=  3 NShTot=          93 NBatch=          25 AvBLen=         3.7
 IPart=  2 NShTot=         104 NBatch=          30 AvBLen=         3.5
 IPart=  1 NShTot=         110 NBatch=          32 AvBLen=         3.4
 IPart=  0 NShTot=         114 NBatch=          36 AvBLen=         3.2
 PrSmSu:  NxtVal=              7.
 *** Overlap *** 
                1             2             3             4             5 
      1  0.100000D+01
      2  0.878444D+00  0.100000D+01
      3  0.000000D+00  0.000000D+00  0.100000D+01
      4  0.000000D+00  0.000000D+00  0.000000D+00  0.100000D+01
      5  0.000000D+00  0.000000D+00  0.000000D+00  0.000000D+00  0.100000D+01
      6  0.329179D+00  0.418800D+00  0.000000D+00  0.000000D+00  0.000000D+00
      7  0.000000D+00  0.000000D+00  0.629120D+00  0.000000D+00  0.000000D+00
      8  0.000000D+00  0.000000D+00  0.000000D+00  0.629120D+00  0.000000D+00
      9  0.000000D+00  0.000000D+00  0.000000D+00  0.000000D+00  0.629120D+00
     10  0.153761D+00  0.187145D+00  0.000000D+00  0.000000D+00  0.000000D+00
     11  0.000000D+00  0.000000D+00  0.220230D+00  0.000000D+00  0.000000D+00
     12  0.000000D+00  0.000000D+00  0.000000D+00  0.220230D+00  0.000000D+00
     13  0.000000D+00  0.000000D+00  0.000000D+00  0.000000D+00  0.220230D+00
     14  0.655625D-01  0.783157D-01  0.000000D+00  0.000000D+00  0.000000D+00
     15  0.000000D+00  0.000000D+00  0.573499D-01  0.000000D+00  0.000000D+00
     16  0.000000D+00  0.000000D+00  0.000000D+00  0.573499D-01  0.000000D+00
     17  0.000000D+00  0.000000D+00  0.000000D+00  0.000000D+00  0.573499D-01
     18  0.000000D+00  0.000000D+00  0.000000D+00  0.000000D+00  0.000000D+00
     19  0.000000D+00  0.000000D+00  0.000000D+00  0.000000D+00  0.000000D+00
     20  0.000000D+00  0.000000D+00  0.000000D+00  0.000000D+00  0.000000D+00
     21  0.000000D+00  0.000000D+00  0.000000D+00  0.000000D+00  0.000000D+00
     22  0.000000D+00  0.000000D+00  0.000000D+00  0.000000D+00  0.000000D+00
     23  0.305649D-04  0.290761D-05 -0.939640D-03  0.365915D-03  0.000000D+00
     24  0.290761D-05  0.000000D+00 -0.317893D-03  0.123794D-03  0.000000D+00
     25  0.939640D-03  0.317893D-03 -0.173141D-01  0.746484D-02  0.000000D+00
     26 -0.365915D-03 -0.123794D-03  0.746484D-02 -0.105201D-02  0.000000D+00
     27  0.000000D+00  0.000000D+00  0.000000D+00  0.000000D+00  0.185495D-02
     28  0.111642D-01  0.118300D-01 -0.587125D-01  0.228639D-01  0.000000D+00
     29  0.350091D-01  0.397803D-01 -0.132530D+00  0.640204D-01  0.000000D+00
     30 -0.136333D-01 -0.154913D-01  0.640204D-01  0.693873D-02  0.000000D+00
     31  0.000000D+00  0.000000D+00  0.000000D+00  0.000000D+00  0.318696D-01
     32  0.499740D-01  0.596129D-01 -0.759536D-01  0.295779D-01  0.000000D+00
     33  0.964218D-01  0.117152D+00 -0.651657D-01  0.546341D-01  0.000000D+00
     34 -0.375486D-01 -0.456214D-01  0.546341D-01  0.538545D-01  0.000000D+00
     35  0.000000D+00  0.000000D+00  0.000000D+00  0.000000D+00  0.751301D-01
     36  0.462471D-01  0.551292D-01 -0.225388D-01  0.877706D-02  0.000000D+00
     37  0.505481D-01  0.606138D-01  0.163447D-01  0.946338D-02  0.000000D+00
     38 -0.196845D-01 -0.236043D-01  0.946338D-02  0.369607D-01  0.000000D+00
     39  0.000000D+00  0.000000D+00  0.000000D+00  0.000000D+00  0.406459D-01
     40 -0.218209D-01 -0.250888D-01  0.885845D-01 -0.344966D-01  0.000000D+00
     41  0.000000D+00  0.000000D+00  0.000000D+00  0.000000D+00  0.591193D-01
     42  0.000000D+00  0.000000D+00  0.000000D+00  0.000000D+00 -0.230223D-01
     43  0.278413D-01  0.320107D-01 -0.974554D-01  0.839956D-01  0.000000D+00
     44 -0.255601D-01 -0.293879D-01  0.120723D+00  0.314183D-02  0.000000D+00
     45  0.000000D+00  0.000000D+00  0.000000D+00  0.000000D+00  0.000000D+00
     46  0.000000D+00  0.000000D+00  0.000000D+00  0.000000D+00  0.000000D+00
     47  0.000000D+00  0.000000D+00  0.000000D+00  0.000000D+00  0.000000D+00
     48  0.000000D+00  0.000000D+00  0.000000D+00  0.000000D+00  0.000000D+00
     49  0.000000D+00  0.000000D+00  0.000000D+00  0.000000D+00  0.000000D+00
     50  0.000000D+00  0.000000D+00 -0.317649D-04 -0.169567D-05  0.000000D+00
     51  0.433058D-05  0.000000D+00 -0.162130D-03 -0.904728D-05  0.000000D+00
     52  0.000000D+00  0.000000D+00 -0.904728D-05  0.687003D-05  0.000000D+00
     53  0.000000D+00  0.000000D+00  0.000000D+00  0.000000D+00  0.735299D-05
     54  0.173007D-02  0.181283D-02 -0.942225D-02 -0.502975D-03  0.000000D+00
     55  0.725224D-02  0.792100D-02 -0.329121D-01 -0.197606D-02  0.000000D+00
     56  0.387136D-03  0.422836D-03 -0.197606D-02  0.399999D-02  0.000000D+00
     57  0.000000D+00  0.000000D+00  0.000000D+00  0.000000D+00  0.410547D-02
     58  0.192506D-01  0.227415D-01 -0.308505D-01 -0.164685D-02  0.000000D+00
     59  0.494006D-01  0.590295D-01 -0.537830D-01 -0.411905D-02  0.000000D+00
     60  0.263709D-02  0.315109D-02 -0.411905D-02  0.231595D-01  0.000000D+00
     61  0.000000D+00  0.000000D+00  0.000000D+00  0.000000D+00  0.233794D-01
     62  0.000000D+00  0.000000D+00  0.239056D-04  0.127612D-05  0.000000D+00
     63  0.000000D+00  0.000000D+00  0.000000D+00  0.000000D+00  0.314551D-05
     64  0.000000D+00  0.000000D+00  0.000000D+00  0.000000D+00  0.000000D+00
     65  0.000000D+00  0.000000D+00 -0.411526D-04 -0.253262D-05  0.000000D+00
     66  0.000000D+00  0.000000D+00 -0.457501D-05  0.289232D-05  0.000000D+00
     67  0.113388D-01  0.101841D-01  0.508604D-01  0.354269D-01  0.833337D-01
     68  0.731323D-01  0.875849D-01  0.854196D-01  0.594992D-01  0.139958D+00
     69  0.788668D-01  0.947446D-01  0.326719D-01  0.227577D-01  0.535323D-01
     70 -0.420883D-01 -0.504692D-01 -0.357096D-02 -0.658457D-01 -0.154887D+00
     71 -0.293167D-01 -0.351544D-01 -0.658457D-01  0.450951D-01 -0.107887D+00
     72 -0.689609D-01 -0.826928D-01 -0.154887D+00 -0.107887D+00 -0.162819D+00
     73  0.117512D-01  0.106229D-01 -0.747294D-03 -0.106486D+00  0.000000D+00
     74  0.741044D-01  0.887925D-01 -0.123242D-02 -0.175614D+00  0.000000D+00
     75  0.792183D-01  0.951724D-01 -0.467749D-03 -0.666523D-01  0.000000D+00
     76  0.616530D-03  0.740760D-03  0.930206D-01 -0.280018D-02  0.000000D+00
     77  0.878530D-01  0.105555D+00 -0.280018D-02 -0.305974D+00  0.000000D+00
     78  0.000000D+00  0.000000D+00  0.000000D+00  0.000000D+00  0.930402D-01
     79  0.113388D-01  0.101841D-01  0.508604D-01  0.354269D-01 -0.833337D-01
     80  0.731323D-01  0.875849D-01  0.854196D-01  0.594992D-01 -0.139958D+00
     81  0.788668D-01  0.947446D-01  0.326719D-01  0.227577D-01 -0.535323D-01
     82 -0.420883D-01 -0.504692D-01 -0.357097D-02 -0.658457D-01  0.154887D+00
     83 -0.293167D-01 -0.351544D-01 -0.658457D-01  0.450950D-01  0.107887D+00
     84  0.689609D-01  0.826928D-01  0.154887D+00  0.107887D+00 -0.162819D+00
     85  0.000000D+00  0.000000D+00 -0.241444D-04  0.270972D-04  0.000000D+00
     86  0.150442D-02  0.149984D-02 -0.661497D-02  0.742399D-02  0.000000D+00
     87  0.210656D-01  0.248600D-01 -0.249957D-01  0.280527D-01  0.000000D+00
     88  0.609559D-04  0.231702D-04 -0.799741D-03  0.103097D-02  0.000000D+00
     89 -0.684108D-04 -0.260039D-04  0.103097D-02 -0.103818D-02  0.000000D+00
     90  0.000000D+00  0.000000D+00  0.000000D+00  0.000000D+00  0.118878D-03
                6             7             8             9            10 
      6  0.100000D+01
      7  0.000000D+00  0.100000D+01
      8  0.000000D+00  0.000000D+00  0.100000D+01
      9  0.000000D+00  0.000000D+00  0.000000D+00  0.100000D+01
     10  0.774697D+00  0.000000D+00  0.000000D+00  0.000000D+00  0.100000D+01
     11  0.000000D+00  0.653461D+00  0.000000D+00  0.000000D+00  0.000000D+00
     12  0.000000D+00  0.000000D+00  0.653461D+00  0.000000D+00  0.000000D+00
     13  0.000000D+00  0.000000D+00  0.000000D+00  0.653461D+00  0.000000D+00
     14  0.410096D+00  0.000000D+00  0.000000D+00  0.000000D+00  0.774408D+00
     15  0.000000D+00  0.226365D+00  0.000000D+00  0.000000D+00  0.000000D+00
     16  0.000000D+00  0.000000D+00  0.226365D+00  0.000000D+00  0.000000D+00
     17  0.000000D+00  0.000000D+00  0.000000D+00  0.226365D+00  0.000000D+00
     18  0.000000D+00  0.000000D+00  0.000000D+00  0.000000D+00  0.000000D+00
     19  0.000000D+00  0.000000D+00  0.000000D+00  0.000000D+00  0.000000D+00
     20  0.000000D+00  0.000000D+00  0.000000D+00  0.000000D+00  0.000000D+00
     21  0.000000D+00  0.000000D+00  0.000000D+00  0.000000D+00  0.000000D+00
     22  0.000000D+00  0.000000D+00  0.000000D+00  0.000000D+00  0.000000D+00
     23  0.111642D-01 -0.350091D-01  0.136333D-01  0.000000D+00  0.499740D-01
     24  0.118300D-01 -0.397803D-01  0.154913D-01  0.000000D+00  0.596129D-01
     25  0.587125D-01 -0.132530D+00  0.640204D-01  0.000000D+00  0.759536D-01
     26 -0.228639D-01  0.640204D-01  0.693873D-02  0.000000D+00 -0.295779D-01
     27  0.000000D+00  0.000000D+00  0.000000D+00  0.318696D-01  0.000000D+00
     28  0.141659D+00 -0.260974D+00  0.101629D+00  0.000000D+00  0.313516D+00
     29  0.260974D+00 -0.339128D+00  0.187228D+00  0.000000D+00  0.267351D+00
     30 -0.101629D+00  0.187228D+00  0.687483D-01  0.000000D+00 -0.104112D+00
     31  0.000000D+00  0.000000D+00  0.000000D+00  0.141659D+00  0.000000D+00
     32  0.313516D+00 -0.267351D+00  0.104112D+00  0.000000D+00  0.555150D+00
     33  0.487194D+00 -0.151003D+00  0.161787D+00  0.000000D+00  0.561235D+00
     34 -0.189723D+00  0.161787D+00  0.201450D+00  0.000000D+00 -0.218556D+00
     35  0.000000D+00  0.000000D+00  0.000000D+00  0.264453D+00  0.000000D+00
     36  0.296395D+00 -0.907210D-01  0.353286D-01  0.000000D+00  0.589857D+00
     37  0.301404D+00  0.713501D-01  0.359257D-01  0.000000D+00  0.502876D+00
     38 -0.117373D+00  0.359257D-01  0.149614D+00  0.000000D+00 -0.195830D+00
     39  0.000000D+00  0.000000D+00  0.000000D+00  0.163604D+00  0.000000D+00
     40 -0.120776D+00  0.137240D+00 -0.534439D-01  0.000000D+00 -0.554231D-01
     41  0.000000D+00  0.000000D+00  0.000000D+00  0.197196D+00  0.000000D+00
     42  0.000000D+00  0.000000D+00  0.000000D+00 -0.767922D-01  0.000000D+00
     43  0.154099D+00 -0.123171D+00  0.201550D+00  0.000000D+00  0.707143D-01
     44 -0.141472D+00  0.217325D+00  0.826609D-01  0.000000D+00 -0.649203D-01
     45  0.258416D-04 -0.147744D-03 -0.788681D-05  0.000000D+00  0.567385D-02
     46  0.191578D-04 -0.115516D-03 -0.616645D-05  0.000000D+00  0.584385D-02
     47  0.216342D-03 -0.110341D-02 -0.625605D-04  0.000000D+00  0.104519D-01
     48  0.115487D-04 -0.625605D-04  0.652029D-04  0.000000D+00  0.557938D-03
     49  0.000000D+00  0.000000D+00  0.000000D+00  0.685425D-04  0.000000D+00
     50  0.137911D-02 -0.567591D-02 -0.302990D-03  0.000000D+00  0.429939D-01
     51  0.414697D-02 -0.157536D-01 -0.911088D-03  0.000000D+00  0.514438D-01
     52  0.221372D-03 -0.911088D-03  0.126523D-02  0.000000D+00  0.274616D-02
     53  0.000000D+00  0.000000D+00  0.000000D+00  0.131387D-02  0.000000D+00
     54  0.292978D-01 -0.639647D-01 -0.341454D-02  0.000000D+00  0.138699D+00
     55  0.879688D-01 -0.164188D+00 -0.102524D-01  0.000000D+00  0.231023D+00
     56  0.469592D-02 -0.102524D-01  0.273235D-01  0.000000D+00  0.123324D-01
     57  0.000000D+00  0.000000D+00  0.000000D+00  0.278708D-01  0.000000D+00
     58  0.135814D+00 -0.127555D+00 -0.680909D-02  0.000000D+00  0.313574D+00
     59  0.305103D+00 -0.189885D+00 -0.152965D-01  0.000000D+00  0.523634D+00
     60  0.162869D-01 -0.152965D-01  0.958480D-01  0.000000D+00  0.279525D-01
     61  0.000000D+00  0.000000D+00  0.000000D+00  0.966645D-01  0.000000D+00
     62 -0.133640D-02  0.529463D-02  0.282636D-03  0.000000D+00 -0.992074D-02
     63  0.000000D+00  0.000000D+00  0.000000D+00  0.146256D-02  0.000000D+00
     64  0.000000D+00  0.000000D+00  0.000000D+00  0.780737D-04  0.000000D+00
     65  0.230157D-02 -0.911014D-02 -0.642462D-03  0.000000D+00  0.170856D-01
     66  0.246425D-03 -0.105393D-02  0.140213D-02  0.000000D+00  0.182933D-02
     67  0.184252D+00  0.187026D+00  0.130273D+00  0.306438D+00  0.264806D+00
     68  0.421646D+00  0.239389D+00  0.166747D+00  0.392235D+00  0.576955D+00
     69  0.461076D+00  0.113955D+00  0.793754D-01  0.186713D+00  0.755086D+00
     70 -0.188312D+00  0.105620D+00 -0.112468D+00 -0.264556D+00 -0.107304D+00
     71 -0.131169D+00 -0.112468D+00  0.188744D+00 -0.184277D+00 -0.747427D-01
     72 -0.308545D+00 -0.264556D+00 -0.184277D+00 -0.166385D+00 -0.175815D+00
     73  0.187144D+00 -0.270812D-02 -0.385896D+00  0.000000D+00  0.266354D+00
     74  0.425334D+00 -0.344234D-02 -0.490519D+00  0.000000D+00  0.579559D+00
     75  0.462827D+00 -0.163059D-02 -0.232353D+00  0.000000D+00  0.757123D+00
     76  0.271992D-02  0.270587D+00 -0.473722D-02  0.000000D+00  0.153798D-02
     77  0.387578D+00 -0.473722D-02 -0.404414D+00  0.000000D+00  0.219156D+00
     78  0.000000D+00  0.000000D+00  0.000000D+00  0.270620D+00  0.000000D+00
     79  0.184252D+00  0.187026D+00  0.130273D+00 -0.306438D+00  0.264806D+00
     80  0.421646D+00  0.239389D+00  0.166747D+00 -0.392235D+00  0.576955D+00
     81  0.461076D+00  0.113955D+00  0.793754D-01 -0.186713D+00  0.755086D+00
     82 -0.188312D+00  0.105620D+00 -0.112468D+00  0.264556D+00 -0.107304D+00
     83 -0.131169D+00 -0.112468D+00  0.188744D+00  0.184277D+00 -0.747427D-01
     84  0.308545D+00  0.264556D+00  0.184277D+00 -0.166385D+00  0.175815D+00
     85  0.188162D-02 -0.517758D-02  0.581081D-02  0.000000D+00  0.469404D-01
     86  0.317461D-01 -0.495715D-01  0.556341D-01  0.000000D+00  0.151519D+00
     87  0.149555D+00 -0.101659D+00  0.114092D+00  0.000000D+00  0.339163D+00
     88  0.104207D-01 -0.192003D-01  0.275796D-01  0.000000D+00  0.584047D-01
     89 -0.116951D-01  0.275796D-01 -0.255788D-01  0.000000D+00 -0.655476D-01
     90  0.000000D+00  0.000000D+00  0.000000D+00  0.537378D-02  0.000000D+00
               11            12            13            14            15 
     11  0.100000D+01
     12  0.000000D+00  0.100000D+01
     13  0.000000D+00  0.000000D+00  0.100000D+01
     14  0.000000D+00  0.000000D+00  0.000000D+00  0.100000D+01
     15  0.653055D+00  0.000000D+00  0.000000D+00  0.000000D+00  0.100000D+01
     16  0.000000D+00  0.653055D+00  0.000000D+00  0.000000D+00  0.000000D+00
     17  0.000000D+00  0.000000D+00  0.653055D+00  0.000000D+00  0.000000D+00
     18  0.000000D+00  0.000000D+00  0.000000D+00  0.000000D+00  0.000000D+00
     19  0.000000D+00  0.000000D+00  0.000000D+00  0.000000D+00  0.000000D+00
     20  0.000000D+00  0.000000D+00  0.000000D+00  0.000000D+00  0.000000D+00
     21  0.000000D+00  0.000000D+00  0.000000D+00  0.000000D+00  0.000000D+00
     22  0.000000D+00  0.000000D+00  0.000000D+00  0.000000D+00  0.000000D+00
     23 -0.964218D-01  0.375486D-01  0.000000D+00  0.462471D-01 -0.505481D-01
     24 -0.117152D+00  0.456214D-01  0.000000D+00  0.551292D-01 -0.606138D-01
     25 -0.651657D-01  0.546341D-01  0.000000D+00  0.225388D-01  0.163447D-01
     26  0.546341D-01  0.538545D-01  0.000000D+00 -0.877706D-02  0.946338D-02
     27  0.000000D+00  0.000000D+00  0.751301D-01  0.000000D+00  0.000000D+00
     28 -0.487194D+00  0.189723D+00  0.000000D+00  0.296395D+00 -0.301404D+00
     29 -0.151003D+00  0.161787D+00  0.000000D+00  0.907210D-01  0.713501D-01
     30  0.161787D+00  0.201450D+00  0.000000D+00 -0.353286D-01  0.359257D-01
     31  0.000000D+00  0.000000D+00  0.264453D+00  0.000000D+00  0.000000D+00
     32 -0.561235D+00  0.218556D+00  0.000000D+00  0.589857D+00 -0.502876D+00
     33 -0.122364D-01  0.220952D+00  0.000000D+00  0.275829D+00  0.262269D+00
     34  0.220952D+00  0.469107D+00  0.000000D+00 -0.107413D+00  0.915741D-01
     35  0.000000D+00  0.000000D+00  0.555150D+00  0.000000D+00  0.000000D+00
     36 -0.275829D+00  0.107413D+00  0.000000D+00  0.837731D+00 -0.464534D+00
     37  0.262269D+00  0.915741D-01  0.000000D+00  0.464534D+00  0.580140D+00
     38  0.915741D-01  0.461763D+00  0.000000D+00 -0.180899D+00  0.100311D+00
     39  0.000000D+00  0.000000D+00  0.497424D+00  0.000000D+00  0.000000D+00
     40 -0.428940D-02  0.167038D-02  0.000000D+00 -0.624027D-02 -0.130753D-01
     41  0.000000D+00  0.000000D+00  0.164903D+00  0.000000D+00  0.000000D+00
     42  0.000000D+00  0.000000D+00 -0.642164D-01  0.000000D+00  0.000000D+00
     43  0.489014D-01  0.109390D+00  0.000000D+00  0.796196D-02  0.255975D-01
     44  0.422800D-01  0.123431D+00  0.000000D+00 -0.730958D-02 -0.560551D-02
     45 -0.191479D-01 -0.102215D-02  0.000000D+00  0.180974D-01 -0.341171D-01
     46 -0.199573D-01 -0.106535D-02  0.000000D+00  0.189951D-01 -0.359367D-01
     47 -0.284879D-01 -0.184286D-02  0.000000D+00  0.100152D-01 -0.821245D-02
     48 -0.184286D-02  0.593603D-02  0.000000D+00  0.534629D-03 -0.100114D-02
     49  0.000000D+00  0.000000D+00  0.603440D-02  0.000000D+00  0.000000D+00
     50 -0.128309D+00 -0.684935D-02  0.000000D+00  0.114604D+00 -0.207709D+00
     51 -0.123826D+00 -0.819551D-02  0.000000D+00  0.456783D-01 -0.347071D-01
     52 -0.819551D-02  0.292637D-01  0.000000D+00  0.243838D-02 -0.441935D-02
     53  0.000000D+00  0.000000D+00  0.297011D-01  0.000000D+00  0.000000D+00
     54 -0.306116D+00 -0.163410D-01  0.000000D+00  0.274374D+00 -0.445066D+00
     55 -0.376498D+00 -0.272182D-01  0.000000D+00  0.184235D+00 -0.104924D+00
     56 -0.272182D-01  0.131928D+00  0.000000D+00  0.983475D-02 -0.159530D-01
     57  0.000000D+00  0.000000D+00  0.133381D+00  0.000000D+00  0.000000D+00
     58 -0.398931D+00 -0.212956D-01  0.000000D+00  0.508810D+00 -0.636729D+00
     59 -0.363851D+00 -0.355613D-01  0.000000D+00  0.458420D+00 -0.911391D-01
     60 -0.355613D-01  0.300423D+00  0.000000D+00  0.244712D-01 -0.306234D-01
     61  0.000000D+00  0.000000D+00  0.302321D+00  0.000000D+00  0.000000D+00
     62  0.194631D-01  0.103897D-02  0.000000D+00 -0.293573D-02 -0.767534D-03
     63  0.000000D+00  0.000000D+00  0.197851D-01  0.000000D+00  0.000000D+00
     64  0.000000D+00  0.000000D+00  0.105616D-02  0.000000D+00  0.000000D+00
     65 -0.334071D-01 -0.389565D-02  0.000000D+00  0.505593D-02  0.138251D-02
     66 -0.463905D-02  0.194811D-01  0.000000D+00  0.541331D-03 -0.425036D-03
     67  0.183364D+00  0.127722D+00  0.300438D+00  0.175949D+00  0.721139D-01
     68  0.308584D+00  0.214945D+00  0.505609D+00  0.440392D+00  0.164772D+00
     69  0.241745D+00  0.168388D+00  0.396095D+00  0.767958D+00  0.228529D+00
     70  0.207799D+00 -0.484354D-01 -0.113933D+00 -0.250435D-01  0.107964D+00
     71 -0.484354D-01  0.243598D+00 -0.793604D-01 -0.174441D-01 -0.699548D-02
     72 -0.113933D+00 -0.793604D-01  0.906579D-01 -0.410333D-01 -0.164553D-01
     73 -0.262913D-02 -0.374641D+00  0.000000D+00  0.176282D+00 -0.102993D-02
     74 -0.441871D-02 -0.629648D+00  0.000000D+00  0.441154D+00 -0.235289D-02
     75 -0.345537D-02 -0.492376D+00  0.000000D+00  0.769014D+00 -0.326215D-02
     76  0.278838D+00 -0.202448D-02  0.000000D+00  0.357657D-03  0.118223D+00
     77 -0.202448D-02 -0.962837D-02  0.000000D+00  0.509646D-01 -0.291343D-03
     78  0.000000D+00  0.000000D+00  0.278852D+00  0.000000D+00  0.000000D+00
     79  0.183364D+00  0.127722D+00 -0.300438D+00  0.175949D+00  0.721139D-01
     80  0.308584D+00  0.214945D+00 -0.505609D+00  0.440392D+00  0.164772D+00
     81  0.241745D+00  0.168388D+00 -0.396095D+00  0.767958D+00  0.228529D+00
     82  0.207799D+00 -0.484354D-01  0.113933D+00 -0.250435D-01  0.107964D+00
     83 -0.484354D-01  0.243598D+00  0.793604D-01 -0.174441D-01 -0.699549D-02
     84  0.113933D+00  0.793604D-01  0.906579D-01  0.410333D-01  0.164553D-01
     85 -0.893046D-01  0.100227D+00  0.000000D+00  0.100305D+00 -0.113064D+00
     86 -0.222886D+00  0.250145D+00  0.000000D+00  0.263654D+00 -0.271309D+00
     87 -0.298645D+00  0.335170D+00  0.000000D+00  0.510657D+00 -0.417943D+00
     88 -0.492095D-01  0.116825D+00  0.000000D+00  0.397440D-01  0.242568D-01
     89  0.116825D+00 -0.762282D-01  0.000000D+00 -0.446048D-01  0.491966D-01
     90  0.000000D+00  0.000000D+00  0.548849D-01  0.000000D+00  0.000000D+00
               16            17            18            19            20 
     16  0.100000D+01
     17  0.000000D+00  0.100000D+01
     18  0.000000D+00  0.000000D+00  0.100000D+01
     19  0.000000D+00  0.000000D+00  0.000000D+00  0.100000D+01
     20  0.000000D+00  0.000000D+00  0.000000D+00  0.000000D+00  0.100000D+01
     21  0.000000D+00  0.000000D+00  0.000000D+00  0.000000D+00  0.000000D+00
     22  0.000000D+00  0.000000D+00  0.000000D+00  0.000000D+00  0.000000D+00
     23  0.196845D-01  0.000000D+00 -0.218209D-01  0.000000D+00  0.000000D+00
     24  0.236043D-01  0.000000D+00 -0.250888D-01  0.000000D+00  0.000000D+00
     25  0.946338D-02  0.000000D+00 -0.885845D-01  0.000000D+00  0.000000D+00
     26  0.369607D-01  0.000000D+00  0.344966D-01  0.000000D+00  0.000000D+00
     27  0.000000D+00  0.406459D-01  0.000000D+00 -0.591193D-01  0.230223D-01
     28  0.117373D+00  0.000000D+00 -0.120776D+00  0.000000D+00  0.000000D+00
     29  0.359257D-01  0.000000D+00 -0.137240D+00  0.000000D+00  0.000000D+00
     30  0.149614D+00  0.000000D+00  0.534439D-01  0.000000D+00  0.000000D+00
     31  0.000000D+00  0.163604D+00  0.000000D+00 -0.197196D+00  0.767922D-01
     32  0.195830D+00  0.000000D+00 -0.554231D-01  0.000000D+00  0.000000D+00
     33  0.915741D-01  0.000000D+00  0.428940D-02  0.000000D+00  0.000000D+00
     34  0.461763D+00  0.000000D+00 -0.167038D-02  0.000000D+00  0.000000D+00
     35  0.000000D+00  0.497424D+00  0.000000D+00 -0.164903D+00  0.642164D-01
     36  0.180899D+00  0.000000D+00 -0.624027D-02  0.000000D+00  0.000000D+00
     37  0.100311D+00  0.000000D+00  0.130753D-01  0.000000D+00  0.000000D+00
     38  0.798668D+00  0.000000D+00 -0.509180D-02  0.000000D+00  0.000000D+00
     39  0.000000D+00  0.837731D+00  0.000000D+00 -0.338502D-01  0.131819D-01
     40  0.509180D-02  0.000000D+00  0.115245D+00  0.000000D+00  0.000000D+00
     41  0.000000D+00  0.338502D-01  0.000000D+00 -0.270265D+00  0.136250D+00
     42  0.000000D+00 -0.131819D-01  0.000000D+00  0.136250D+00  0.265559D-01
     43  0.163957D-01  0.000000D+00 -0.454608D-01  0.000000D+00  0.000000D+00
     44  0.308997D-01  0.000000D+00  0.417359D-01  0.000000D+00  0.000000D+00
     45 -0.182123D-02  0.000000D+00 -0.331932D-04  0.000000D+00  0.000000D+00
     46 -0.191836D-02  0.000000D+00 -0.213394D-04  0.000000D+00  0.000000D+00
     47 -0.100114D-02  0.000000D+00 -0.351037D-03  0.000000D+00  0.000000D+00
     48  0.104885D-01  0.000000D+00 -0.187389D-04  0.000000D+00  0.000000D+00
     49  0.000000D+00  0.105420D-01  0.000000D+00 -0.630560D-04 -0.336603D-05
     50 -0.110879D-01  0.000000D+00 -0.242571D-02  0.000000D+00  0.000000D+00
     51 -0.441935D-02  0.000000D+00 -0.744592D-02  0.000000D+00  0.000000D+00
     52  0.478448D-01  0.000000D+00 -0.397475D-03  0.000000D+00  0.000000D+00
     53  0.000000D+00  0.480808D-01  0.000000D+00 -0.193959D-02 -0.103538D-03
     54 -0.237583D-01  0.000000D+00 -0.255101D-01  0.000000D+00  0.000000D+00
     55 -0.159530D-01  0.000000D+00 -0.609765D-01  0.000000D+00  0.000000D+00
     56  0.193073D+00  0.000000D+00 -0.325503D-02  0.000000D+00  0.000000D+00
     57  0.000000D+00  0.193925D+00  0.000000D+00 -0.383951D-01 -0.204959D-02
     58 -0.339896D-01  0.000000D+00 -0.236301D-01  0.000000D+00  0.000000D+00
     59 -0.306234D-01  0.000000D+00 -0.192326D-01  0.000000D+00  0.000000D+00
     60  0.480896D+00  0.000000D+00 -0.102667D-02  0.000000D+00  0.000000D+00
     61  0.000000D+00  0.482531D+00  0.000000D+00 -0.618572D-01 -0.330204D-02
     62 -0.409722D-04  0.000000D+00  0.268931D-02  0.000000D+00  0.000000D+00
     63  0.000000D+00  0.106741D-01  0.000000D+00 -0.214837D-02 -0.121685D-03
     64  0.000000D+00  0.569802D-03  0.000000D+00 -0.121685D-03  0.124671D-03
     65 -0.106580D-02  0.000000D+00 -0.440565D-02  0.000000D+00  0.000000D+00
     66  0.106210D-01  0.000000D+00 -0.471706D-03  0.000000D+00  0.000000D+00
     67  0.502310D-01  0.118157D+00  0.189662D+00  0.277158D+00  0.193055D+00
     68  0.114772D+00  0.269976D+00  0.124783D+00  0.182348D+00  0.127015D+00
     69  0.159182D+00  0.374440D+00  0.228221D-01  0.333505D-01  0.232303D-01
     70 -0.699548D-02 -0.164553D-01 -0.273448D+00  0.979764D-01 -0.160535D+00
     71  0.113134D+00 -0.114620D-01 -0.190471D+00 -0.160535D+00  0.216626D+00
     72 -0.114620D-01  0.910451D-01  0.120848D+00 -0.177164D+00 -0.123404D+00
     73 -0.146761D+00  0.000000D+00 -0.205340D+00  0.000000D+00  0.000000D+00
     74 -0.335277D+00  0.000000D+00 -0.133842D+00  0.000000D+00  0.000000D+00
     75 -0.464843D+00  0.000000D+00 -0.243414D-01  0.000000D+00  0.000000D+00
     76 -0.291343D-03  0.000000D+00 -0.749985D-03  0.000000D+00  0.000000D+00
     77  0.767103D-01  0.000000D+00 -0.106870D+00  0.000000D+00  0.000000D+00
     78  0.000000D+00  0.118225D+00  0.000000D+00 -0.290149D-02 -0.413451D+00
     79  0.502310D-01 -0.118157D+00  0.189662D+00 -0.277158D+00 -0.193055D+00
     80  0.114772D+00 -0.269976D+00  0.124783D+00 -0.182348D+00 -0.127015D+00
     81  0.159182D+00 -0.374440D+00  0.228221D-01 -0.333505D-01 -0.232303D-01
     82 -0.699549D-02  0.164553D-01 -0.273448D+00 -0.979763D-01  0.160535D+00
     83  0.113134D+00  0.114620D-01 -0.190471D+00  0.160535D+00 -0.216626D+00
     84  0.114620D-01  0.910451D-01 -0.120848D+00 -0.177164D+00 -0.123404D+00
     85  0.126892D+00  0.000000D+00 -0.341601D-02  0.000000D+00  0.000000D+00
     86  0.304490D+00  0.000000D+00 -0.318444D-01  0.000000D+00  0.000000D+00
     87  0.469058D+00  0.000000D+00 -0.310862D-01  0.000000D+00  0.000000D+00
     88  0.491966D-01  0.000000D+00 -0.170824D-01  0.000000D+00  0.000000D+00
     89  0.128789D-01  0.000000D+00  0.191716D-01  0.000000D+00  0.000000D+00
     90  0.000000D+00  0.680923D-01  0.000000D+00 -0.592139D-02  0.664558D-02
               21            22            23            24            25 
     21  0.100000D+01
     22  0.000000D+00  0.100000D+01
     23  0.278413D-01 -0.255601D-01  0.100000D+01
     24  0.320107D-01 -0.293879D-01  0.878444D+00  0.100000D+01
     25  0.974554D-01 -0.120723D+00  0.000000D+00  0.000000D+00  0.100000D+01
     26 -0.839956D-01 -0.314183D-02  0.000000D+00  0.000000D+00  0.000000D+00
     27  0.000000D+00  0.000000D+00  0.000000D+00  0.000000D+00  0.000000D+00
     28  0.154099D+00 -0.141472D+00  0.329179D+00  0.418800D+00  0.000000D+00
     29  0.123171D+00 -0.217325D+00  0.000000D+00  0.000000D+00  0.629120D+00
     30 -0.201550D+00 -0.826609D-01  0.000000D+00  0.000000D+00  0.000000D+00
     31  0.000000D+00  0.000000D+00  0.000000D+00  0.000000D+00  0.000000D+00
     32  0.707143D-01 -0.649203D-01  0.153761D+00  0.187145D+00  0.000000D+00
     33 -0.489014D-01 -0.422800D-01  0.000000D+00  0.000000D+00  0.220230D+00
     34 -0.109390D+00 -0.123431D+00  0.000000D+00  0.000000D+00  0.000000D+00
     35  0.000000D+00  0.000000D+00  0.000000D+00  0.000000D+00  0.000000D+00
     36  0.796196D-02 -0.730958D-02  0.655625D-01  0.783157D-01  0.000000D+00
     37 -0.255975D-01  0.560551D-02  0.000000D+00  0.000000D+00  0.573499D-01
     38 -0.163957D-01 -0.308997D-01  0.000000D+00  0.000000D+00  0.000000D+00
     39  0.000000D+00  0.000000D+00  0.000000D+00  0.000000D+00  0.000000D+00
     40 -0.454608D-01  0.417359D-01  0.000000D+00  0.000000D+00  0.000000D+00
     41  0.000000D+00  0.000000D+00  0.000000D+00  0.000000D+00  0.000000D+00
     42  0.000000D+00  0.000000D+00  0.000000D+00  0.000000D+00  0.000000D+00
     43 -0.466699D-01 -0.253986D+00  0.000000D+00  0.000000D+00  0.000000D+00
     44 -0.253986D+00 -0.901486D-01  0.000000D+00  0.000000D+00  0.000000D+00
     45  0.571656D-04  0.612063D-05  0.103316D-03  0.102079D-05 -0.330904D-02
     46  0.367509D-04  0.393487D-05  0.422098D-04 -0.235153D-05 -0.229956D-02
     47  0.604200D-03  0.680760D-04  0.136515D-02  0.229883D-03 -0.238022D-01
     48  0.389852D-04 -0.592423D-04  0.920369D-03  0.154984D-03 -0.187321D-01
     49  0.000000D+00  0.000000D+00  0.000000D+00  0.000000D+00  0.000000D+00
     50  0.417758D-02  0.447286D-03  0.117360D-01  0.111283D-01 -0.788095D-01
     51  0.128124D-01  0.147593D-02  0.312222D-01  0.339410D-01 -0.134205D+00
     52  0.891023D-03 -0.185527D-02  0.210496D-01  0.228826D-01 -0.120022D+00
     53  0.000000D+00  0.000000D+00  0.000000D+00  0.000000D+00  0.000000D+00
     54  0.439337D-01  0.470391D-02  0.653576D-01  0.781601D-01 -0.116226D+00
     55  0.104796D+00  0.132816D-01  0.115370D+00  0.142155D+00 -0.689540D-01
     56  0.969337D-02 -0.375767D-01  0.777812D-01  0.958395D-01 -0.128497D+00
     57  0.000000D+00  0.000000D+00  0.000000D+00  0.000000D+00  0.000000D+00
     58  0.406959D-01  0.435725D-02  0.686457D-01  0.822610D-01 -0.443374D-01
     59  0.327710D-01  0.682966D-02  0.733738D-01  0.888932D-01  0.345336D-01
     60  0.835345D-02 -0.613163D-01  0.494678D-01  0.599308D-01 -0.311298D-01
     61  0.000000D+00  0.000000D+00  0.000000D+00  0.000000D+00  0.000000D+00
     62 -0.440565D-02 -0.471706D-03 -0.156863D-01 -0.167768D-01  0.839890D-01
     63  0.000000D+00  0.000000D+00  0.000000D+00  0.000000D+00  0.000000D+00
     64  0.000000D+00  0.000000D+00  0.000000D+00  0.000000D+00  0.000000D+00
     65  0.769270D-02  0.105436D-02  0.101889D-01  0.108973D-01 -0.201045D-01
     66  0.105436D-02 -0.204198D-02  0.251865D-01  0.269376D-01 -0.148793D+00
     67  0.435420D-01  0.117826D+00  0.175058D-05  0.000000D+00  0.728513D-04
     68  0.286472D-01  0.775200D-01  0.218439D-02  0.222390D-02  0.122705D-01
     69  0.523941D-02  0.141780D-01  0.239371D-01  0.282987D-01  0.371657D-01
     70  0.164251D+00  0.416518D-01 -0.161273D-03 -0.710353D-04 -0.278068D-02
     71 -0.164850D+00  0.132212D+00  0.143274D-04  0.631073D-05  0.267049D-03
     72 -0.593250D-01 -0.160535D+00 -0.731387D-04 -0.322150D-04 -0.136323D-02
     73 -0.355624D+00  0.499161D-02  0.150443D-05  0.000000D+00  0.456518D-04
     74 -0.231799D+00  0.325357D-02  0.205335D-02  0.208333D-02  0.833507D-02
     75 -0.421563D-01  0.591714D-03  0.234354D-01  0.276975D-01  0.261887D-01
     76 -0.710159D-02 -0.413392D+00 -0.103263D-03 -0.444037D-04 -0.119594D-02
     77 -0.185045D+00  0.549910D-02  0.121150D-03  0.520954D-04  0.164084D-02
     78  0.000000D+00  0.000000D+00  0.000000D+00  0.000000D+00  0.000000D+00
     79  0.435420D-01  0.117826D+00  0.175058D-05  0.000000D+00  0.728513D-04
     80  0.286472D-01  0.775200D-01  0.218439D-02  0.222390D-02  0.122705D-01
     81  0.523941D-02  0.141780D-01  0.239371D-01  0.282987D-01  0.371657D-01
     82  0.164251D+00  0.416518D-01 -0.161273D-03 -0.710353D-04 -0.278068D-02
     83 -0.164850D+00  0.132212D+00  0.143274D-04  0.631073D-05  0.267049D-03
     84  0.593250D-01  0.160535D+00  0.731387D-04  0.322150D-04  0.136323D-02
     85 -0.679662D-03 -0.587753D-02  0.101893D-01  0.897293D-02 -0.638333D-02
     86 -0.633587D-02 -0.547909D-01  0.702910D-01  0.840582D-01 -0.113217D-01
     87 -0.618503D-02 -0.534865D-01  0.778212D-01  0.934722D-01 -0.443217D-02
     88 -0.100004D-01 -0.286283D-01  0.533056D-02  0.635357D-02  0.833260D-01
     89 -0.206774D-02  0.336666D-01 -0.802625D-01 -0.956660D-01  0.251073D-01
     90  0.000000D+00  0.000000D+00  0.000000D+00  0.000000D+00  0.000000D+00
               26            27            28            29            30 
     26  0.100000D+01
     27  0.000000D+00  0.100000D+01
     28  0.000000D+00  0.000000D+00  0.100000D+01
     29  0.000000D+00  0.000000D+00  0.000000D+00  0.100000D+01
     30  0.629120D+00  0.000000D+00  0.000000D+00  0.000000D+00  0.100000D+01
     31  0.000000D+00  0.629120D+00  0.000000D+00  0.000000D+00  0.000000D+00
     32  0.000000D+00  0.000000D+00  0.774697D+00  0.000000D+00  0.000000D+00
     33  0.000000D+00  0.000000D+00  0.000000D+00  0.653461D+00  0.000000D+00
     34  0.220230D+00  0.000000D+00  0.000000D+00  0.000000D+00  0.653461D+00
     35  0.000000D+00  0.220230D+00  0.000000D+00  0.000000D+00  0.000000D+00
     36  0.000000D+00  0.000000D+00  0.410096D+00  0.000000D+00  0.000000D+00
     37  0.000000D+00  0.000000D+00  0.000000D+00  0.226365D+00  0.000000D+00
     38  0.573499D-01  0.000000D+00  0.000000D+00  0.000000D+00  0.226365D+00
     39  0.000000D+00  0.573499D-01  0.000000D+00  0.000000D+00  0.000000D+00
     40  0.000000D+00  0.000000D+00  0.000000D+00  0.000000D+00  0.000000D+00
     41  0.000000D+00  0.000000D+00  0.000000D+00  0.000000D+00  0.000000D+00
     42  0.000000D+00  0.000000D+00  0.000000D+00  0.000000D+00  0.000000D+00
     43  0.000000D+00  0.000000D+00  0.000000D+00  0.000000D+00  0.000000D+00
     44  0.000000D+00  0.000000D+00  0.000000D+00  0.000000D+00  0.000000D+00
     45 -0.223092D-02  0.000000D+00  0.237651D-01 -0.574535D-01 -0.387345D-01
     46 -0.155034D-02  0.000000D+00  0.241874D-01 -0.606735D-01 -0.409054D-01
     47 -0.187321D-01  0.000000D+00  0.557680D-01 -0.837816D-01 -0.850973D-01
     48 -0.864653D-02  0.000000D+00  0.375981D-01 -0.850973D-01 -0.149314D-01
     49  0.000000D+00  0.398245D-02  0.000000D+00  0.000000D+00  0.000000D+00
     50 -0.531324D-01  0.000000D+00  0.180842D+00 -0.309858D+00 -0.208903D+00
     51 -0.120022D+00  0.000000D+00  0.226391D+00 -0.215617D+00 -0.261520D+00
     52 -0.370979D-01  0.000000D+00  0.152630D+00 -0.261520D+00 -0.402719D-02
     53  0.000000D+00  0.438194D-01  0.000000D+00  0.000000D+00  0.000000D+00
     54 -0.783579D-01  0.000000D+00  0.389253D+00 -0.353806D+00 -0.238532D+00
     55 -0.128497D+00  0.000000D+00  0.486579D+00 -0.719760D-01 -0.298173D+00
     56  0.350102D-01  0.000000D+00  0.328046D+00 -0.298173D+00  0.169269D+00
     57  0.000000D+00  0.121642D+00  0.000000D+00  0.000000D+00  0.000000D+00
     58 -0.298918D-01  0.000000D+00  0.413241D+00 -0.161578D+00 -0.108934D+00
     59 -0.311298D-01  0.000000D+00  0.386486D+00  0.143004D+00 -0.101881D+00
     60  0.597200D-01  0.000000D+00  0.260564D+00 -0.101881D+00  0.225434D+00
     61  0.000000D+00  0.807073D-01  0.000000D+00  0.000000D+00  0.000000D+00
     62  0.566244D-01  0.000000D+00 -0.776190D-01  0.672216D-01  0.453200D-01
     63  0.000000D+00  0.551214D-01  0.000000D+00  0.000000D+00  0.000000D+00
     64  0.000000D+00  0.371622D-01  0.000000D+00  0.000000D+00  0.000000D+00
     65 -0.878786D-01  0.000000D+00  0.504169D-01  0.442587D-01 -0.159849D+00
     66 -0.702473D-01  0.000000D+00  0.124628D+00 -0.143502D+00 -0.200113D-01
     67 -0.647207D-05  0.330386D-04  0.292599D-02  0.105843D-01 -0.940303D-03
     68 -0.109010D-02  0.556477D-02  0.407810D-01  0.836511D-01 -0.743151D-02
     69 -0.330177D-02  0.168549D-01  0.166782D+00  0.148925D+00 -0.132304D-01
     70  0.267049D-03 -0.136323D-02 -0.199816D-01 -0.540551D-01  0.549909D-02
     71  0.201572D-03  0.121109D-03  0.177515D-02  0.549909D-02  0.735557D-02
     72  0.121109D-03 -0.392939D-03 -0.906180D-02 -0.280717D-01  0.249388D-02
     73 -0.535597D-04  0.000000D+00  0.271944D-02  0.707464D-02 -0.830012D-02
     74 -0.977889D-02  0.000000D+00  0.391226D-01  0.577210D-01 -0.677195D-01
     75 -0.307252D-01  0.000000D+00  0.163795D+00  0.105199D+00 -0.123421D+00
     76  0.164084D-02  0.000000D+00 -0.134987D-01 -0.227100D-01  0.352874D-01
     77 -0.172244D-02  0.000000D+00  0.158370D-01  0.352874D-01 -0.340325D-01
     78  0.000000D+00  0.202637D-03  0.000000D+00  0.000000D+00  0.000000D+00
     79 -0.647206D-05 -0.330386D-04  0.292599D-02  0.105843D-01 -0.940302D-03
     80 -0.109010D-02 -0.556477D-02  0.407810D-01  0.836511D-01 -0.743151D-02
     81 -0.330177D-02 -0.168549D-01  0.166782D+00  0.148925D+00 -0.132304D-01
     82  0.267049D-03  0.136323D-02 -0.199816D-01 -0.540551D-01  0.549909D-02
     83  0.201572D-03 -0.121109D-03  0.177515D-02  0.549909D-02  0.735557D-02
     84 -0.121109D-03 -0.392939D-03  0.906180D-02  0.280717D-01 -0.249388D-02
     85  0.961142D-01  0.000000D+00  0.175841D+00 -0.245222D-01  0.369232D+00
     86  0.170472D+00  0.000000D+00  0.410768D+00 -0.320488D-01  0.482560D+00
     87  0.667354D-01  0.000000D+00  0.455859D+00 -0.154828D-01  0.233125D+00
     88  0.251073D-01  0.000000D+00  0.248767D-01  0.253815D+00  0.441356D-01
     89 -0.293048D+00  0.000000D+00 -0.374570D+00  0.441356D-01 -0.407806D+00
     90  0.000000D+00  0.849935D-01  0.000000D+00  0.000000D+00  0.000000D+00
               31            32            33            34            35 
     31  0.100000D+01
     32  0.000000D+00  0.100000D+01
     33  0.000000D+00  0.000000D+00  0.100000D+01
     34  0.000000D+00  0.000000D+00  0.000000D+00  0.100000D+01
     35  0.653461D+00  0.000000D+00  0.000000D+00  0.000000D+00  0.100000D+01
     36  0.000000D+00  0.774408D+00  0.000000D+00  0.000000D+00  0.000000D+00
     37  0.000000D+00  0.000000D+00  0.653055D+00  0.000000D+00  0.000000D+00
     38  0.000000D+00  0.000000D+00  0.000000D+00  0.653055D+00  0.000000D+00
     39  0.226365D+00  0.000000D+00  0.000000D+00  0.000000D+00  0.653055D+00
     40  0.000000D+00  0.000000D+00  0.000000D+00  0.000000D+00  0.000000D+00
     41  0.000000D+00  0.000000D+00  0.000000D+00  0.000000D+00  0.000000D+00
     42  0.000000D+00  0.000000D+00  0.000000D+00  0.000000D+00  0.000000D+00
     43  0.000000D+00  0.000000D+00  0.000000D+00  0.000000D+00  0.000000D+00
     44  0.000000D+00  0.000000D+00  0.000000D+00  0.000000D+00  0.000000D+00
     45  0.000000D+00  0.509398D-01 -0.716104D-01 -0.482789D-01  0.000000D+00
     46  0.000000D+00  0.538255D-01 -0.765268D-01 -0.515935D-01  0.000000D+00
     47  0.000000D+00  0.372678D-01  0.427792D-03 -0.345556D-01  0.000000D+00
     48  0.000000D+00  0.251255D-01 -0.345556D-01  0.283859D-01  0.000000D+00
     49  0.424402D-01  0.000000D+00  0.000000D+00  0.000000D+00  0.516828D-01
     50  0.000000D+00  0.299280D+00 -0.371841D+00 -0.250691D+00  0.000000D+00
     51  0.000000D+00  0.149085D+00  0.215198D-01 -0.124880D+00  0.000000D+00
     52  0.000000D+00  0.100511D+00 -0.124880D+00  0.122557D+00  0.000000D+00
     53  0.172286D+00  0.000000D+00  0.000000D+00  0.000000D+00  0.206750D+00
     54  0.000000D+00  0.582456D+00 -0.535185D+00 -0.360815D+00  0.000000D+00
     55  0.000000D+00  0.403898D+00  0.189006D+00 -0.250204D+00  0.000000D+00
     56  0.000000D+00  0.272304D+00 -0.250204D+00  0.391440D+00  0.000000D+00
     57  0.370293D+00  0.000000D+00  0.000000D+00  0.000000D+00  0.560125D+00
     58  0.000000D+00  0.717074D+00 -0.379795D+00 -0.256054D+00  0.000000D+00
     59  0.000000D+00  0.498517D+00  0.427303D+00 -0.178011D+00  0.000000D+00
     60  0.000000D+00  0.336094D+00 -0.178011D+00  0.571328D+00  0.000000D+00
     61  0.294121D+00  0.000000D+00  0.000000D+00  0.000000D+00  0.691341D+00
     62  0.000000D+00 -0.188783D-01 -0.115297D-01 -0.777320D-02  0.000000D+00
     63  0.140679D+00  0.000000D+00  0.000000D+00  0.000000D+00  0.623508D-01
     64  0.948439D-01  0.000000D+00  0.000000D+00  0.000000D+00  0.420362D-01
     65  0.000000D+00  0.122623D-01  0.464574D-01 -0.527514D-01  0.000000D+00
     66  0.000000D+00  0.303118D-01  0.274844D-02  0.358635D-01  0.000000D+00
     67  0.480006D-02  0.554973D-01  0.138711D+00 -0.123230D-01  0.629065D-01
     68  0.379364D-01  0.172462D+00  0.333260D+00 -0.296066D-01  0.151136D+00
     69  0.675385D-01  0.366494D+00  0.423921D+00 -0.376609D-01  0.192251D+00
     70 -0.280717D-01 -0.897524D-01 -0.145928D+00  0.186682D-01 -0.952976D-01
     71  0.249388D-02  0.797355D-02  0.186682D-01  0.625481D-01  0.846618D-02
     72 -0.488663D-02 -0.407034D-01 -0.952976D-01  0.846618D-02  0.209884D-01
     73  0.000000D+00  0.539779D-01  0.970377D-01 -0.113847D+00  0.000000D+00
     74  0.000000D+00  0.168801D+00  0.234614D+00 -0.275254D+00  0.000000D+00
     75  0.000000D+00  0.361816D+00  0.301022D+00 -0.353165D+00  0.000000D+00
     76  0.000000D+00 -0.628992D-01 -0.433639D-01  0.124270D+00  0.000000D+00
     77  0.000000D+00  0.737947D-01  0.124270D+00 -0.832382D-01  0.000000D+00
     78  0.736741D-02  0.000000D+00  0.000000D+00  0.000000D+00  0.625585D-01
     79 -0.480006D-02  0.554973D-01  0.138711D+00 -0.123230D-01 -0.629065D-01
     80 -0.379364D-01  0.172462D+00  0.333260D+00 -0.296066D-01 -0.151136D+00
     81 -0.675385D-01  0.366494D+00  0.423921D+00 -0.376609D-01 -0.192251D+00
     82  0.280717D-01 -0.897524D-01 -0.145928D+00  0.186682D-01  0.952976D-01
     83 -0.249388D-02  0.797355D-02  0.186682D-01  0.625481D-01 -0.846617D-02
     84 -0.488663D-02  0.407034D-01  0.952976D-01 -0.846617D-02  0.209884D-01
     85  0.000000D+00  0.260214D+00 -0.247611D-01  0.372829D+00  0.000000D+00
     86  0.000000D+00  0.569212D+00 -0.418373D-01  0.629947D+00  0.000000D+00
     87  0.000000D+00  0.749003D+00 -0.329536D-01  0.496185D+00  0.000000D+00
     88  0.000000D+00  0.145065D-01  0.271540D+00  0.194516D-01  0.000000D+00
     89  0.000000D+00 -0.218426D+00  0.194516D-01 -0.200524D-01  0.000000D+00
     90  0.256747D+00  0.000000D+00  0.000000D+00  0.000000D+00  0.272832D+00
               36            37            38            39            40 
     36  0.100000D+01
     37  0.000000D+00  0.100000D+01
     38  0.000000D+00  0.000000D+00  0.100000D+01
     39  0.000000D+00  0.000000D+00  0.000000D+00  0.100000D+01
     40  0.000000D+00  0.000000D+00  0.000000D+00  0.000000D+00  0.100000D+01
     41  0.000000D+00  0.000000D+00  0.000000D+00  0.000000D+00  0.000000D+00
     42  0.000000D+00  0.000000D+00  0.000000D+00  0.000000D+00  0.000000D+00
     43  0.000000D+00  0.000000D+00  0.000000D+00  0.000000D+00  0.000000D+00
     44  0.000000D+00  0.000000D+00  0.000000D+00  0.000000D+00  0.000000D+00
     45  0.354479D-01 -0.278215D-01 -0.187570D-01  0.000000D+00 -0.457130D-01
     46  0.372951D-01 -0.293749D-01 -0.198042D-01  0.000000D+00 -0.492669D-01
     47  0.813036D-02  0.142178D-01 -0.427331D-02  0.000000D+00 -0.755915D-01
     48  0.548139D-02 -0.427331D-02  0.176752D-01  0.000000D+00 -0.509629D-01
     49  0.000000D+00  0.000000D+00  0.000000D+00  0.205562D-01  0.000000D+00
     50  0.218725D+00 -0.165038D+00 -0.111267D+00  0.000000D+00 -0.187102D+00
     51  0.362943D-01  0.643783D-01 -0.184631D-01  0.000000D+00 -0.132018D+00
     52  0.244692D-01 -0.184631D-01  0.793163D-01  0.000000D+00 -0.890048D-01
     53  0.000000D+00  0.000000D+00  0.000000D+00  0.917639D-01  0.000000D+00
     54  0.489295D+00 -0.330429D+00 -0.222772D+00  0.000000D+00 -0.106288D+00
     55  0.136781D+00  0.253457D+00 -0.622752D-01  0.000000D+00  0.873652D-02
     56  0.922162D-01 -0.622752D-01  0.303842D+00  0.000000D+00  0.589006D-02
     57  0.000000D+00  0.000000D+00  0.000000D+00  0.345828D+00  0.000000D+00
     58  0.795005D+00 -0.414187D+00 -0.279240D+00  0.000000D+00 -0.187937D-01
     59  0.298198D+00  0.598586D+00 -0.104740D+00  0.000000D+00  0.288462D-01
     60  0.201042D+00 -0.104740D+00  0.683329D+00  0.000000D+00  0.194478D-01
     61  0.000000D+00  0.000000D+00  0.000000D+00  0.753943D+00  0.000000D+00
     62 -0.142130D-02 -0.385369D-02 -0.259812D-02  0.000000D+00  0.101758D+00
     63  0.000000D+00  0.000000D+00  0.000000D+00  0.855828D-02  0.000000D+00
     64  0.000000D+00  0.000000D+00  0.000000D+00  0.576990D-02  0.000000D+00
     65  0.923195D-03  0.785195D-02 -0.624610D-02  0.000000D+00 -0.807645D-02
     66  0.228210D-02  0.402387D-02  0.738113D-02  0.000000D+00 -0.199646D-01
     67  0.105914D+00  0.156831D+00 -0.139327D-01  0.711239D-01 -0.263431D-02
     68  0.277083D+00  0.374551D+00 -0.332749D-01  0.169861D+00 -0.191139D-01
     69  0.531237D+00  0.571148D+00 -0.507405D-01  0.259020D+00 -0.158655D-01
     70 -0.550641D-01 -0.796382D-02  0.708761D-02 -0.361808D-01  0.120657D-01
     71  0.489186D-02  0.708761D-02  0.711866D-01  0.321428D-02 -0.107191D-02
     72 -0.249720D-01 -0.361808D-01  0.321428D-02  0.554080D-01  0.149496D-01
     73  0.104963D+00  0.111791D+00 -0.131155D+00  0.000000D+00 -0.497529D-02
     74  0.274810D+00  0.267194D+00 -0.313477D+00  0.000000D+00 -0.376323D-01
     75  0.527769D+00  0.408128D+00 -0.478824D+00  0.000000D+00 -0.320879D-01
     76 -0.392579D-01  0.302738D-01  0.479981D-01  0.000000D+00  0.215730D-01
     77  0.460582D-01  0.479981D-01  0.148728D-01  0.000000D+00 -0.253099D-01
     78  0.000000D+00  0.000000D+00  0.000000D+00  0.711852D-01  0.000000D+00
     79  0.105914D+00  0.156831D+00 -0.139327D-01 -0.711239D-01 -0.263431D-02
     80  0.277083D+00  0.374551D+00 -0.332748D-01 -0.169861D+00 -0.191139D-01
     81  0.531237D+00  0.571148D+00 -0.507404D-01 -0.259020D+00 -0.158655D-01
     82 -0.550641D-01 -0.796382D-02  0.708761D-02  0.361808D-01  0.120657D-01
     83  0.489186D-02  0.708761D-02  0.711866D-01 -0.321428D-02 -0.107191D-02
     84  0.249720D-01  0.361808D-01 -0.321428D-02  0.554080D-01 -0.149495D-01
     85  0.174953D+00 -0.985395D-02  0.148371D+00  0.000000D+00 -0.198404D+00
     86  0.438115D+00 -0.225263D-01  0.339180D+00  0.000000D+00 -0.134240D+00
     87  0.764798D+00 -0.312758D-01  0.470921D+00  0.000000D+00 -0.249707D-01
     88  0.342247D-02  0.117164D+00  0.283993D-02  0.000000D+00 -0.772968D-02
     89 -0.515324D-01  0.283993D-02  0.745918D-01  0.000000D+00  0.116386D+00
     90  0.000000D+00  0.000000D+00  0.000000D+00  0.117353D+00  0.000000D+00
               41            42            43            44            45 
     41  0.100000D+01
     42  0.000000D+00  0.100000D+01
     43  0.000000D+00  0.000000D+00  0.100000D+01
     44  0.000000D+00  0.000000D+00  0.000000D+00  0.100000D+01
     45  0.000000D+00  0.000000D+00  0.296926D-01  0.733988D-01  0.100000D+01
     46  0.000000D+00  0.000000D+00  0.320010D-01  0.791051D-01  0.901979D+00
     47  0.000000D+00  0.000000D+00  0.758327D-03  0.140929D+00  0.000000D+00
     48  0.000000D+00  0.000000D+00  0.104806D+00  0.528215D-01  0.000000D+00
     49 -0.773485D-01 -0.521475D-01  0.000000D+00  0.000000D+00  0.000000D+00
     50  0.000000D+00  0.000000D+00  0.121531D+00  0.300419D+00  0.352481D+00
     51  0.000000D+00  0.000000D+00 -0.690964D-01  0.274615D+00  0.000000D+00
     52  0.000000D+00  0.000000D+00  0.287493D+00  0.499957D-01  0.000000D+00
     53 -0.247762D+00 -0.167038D+00  0.000000D+00  0.000000D+00  0.000000D+00
     54  0.000000D+00  0.000000D+00  0.690390D-01  0.170661D+00  0.157945D+00
     55  0.000000D+00  0.000000D+00 -0.171254D+00  0.529552D-01  0.000000D+00
     56  0.000000D+00  0.000000D+00  0.241771D+00 -0.108811D+00  0.000000D+00
     57 -0.264932D+00 -0.178614D+00  0.000000D+00  0.000000D+00  0.000000D+00
     58  0.000000D+00  0.000000D+00  0.122073D-01  0.301760D-01  0.719421D-01
     59  0.000000D+00  0.000000D+00 -0.696573D-01 -0.257174D-01  0.000000D+00
     60  0.000000D+00  0.000000D+00  0.628963D-01 -0.617803D-01  0.000000D+00
     61 -0.814746D-01 -0.549292D-01  0.000000D+00  0.000000D+00  0.000000D+00
     62  0.000000D+00  0.000000D+00 -0.807645D-02 -0.199646D-01  0.000000D+00
     63 -0.179734D+00 -0.181396D+00  0.000000D+00  0.000000D+00  0.000000D+00
     64 -0.181396D+00 -0.329708D-01  0.000000D+00  0.000000D+00  0.000000D+00
     65  0.000000D+00  0.000000D+00 -0.241745D+00  0.149020D+00  0.000000D+00
     66  0.000000D+00  0.000000D+00  0.149020D+00  0.663422D-01  0.000000D+00
     67  0.693730D-02 -0.616306D-03  0.758814D-02 -0.135898D-02  0.000000D+00
     68  0.503354D-01 -0.447176D-02  0.550577D-01 -0.986040D-02  0.472577D-05
     69  0.417810D-01 -0.371180D-02  0.457008D-01 -0.818466D-02  0.255316D-02
     70 -0.446475D-01  0.445258D-02 -0.427556D-01  0.874618D-02  0.000000D+00
     71  0.445258D-02  0.507638D-02  0.594223D-02  0.111936D-01  0.000000D+00
     72 -0.106637D-01  0.947354D-03 -0.248619D-01  0.445258D-02  0.000000D+00
     73  0.000000D+00  0.000000D+00 -0.136507D-02 -0.850865D-02  0.000000D+00
     74  0.000000D+00  0.000000D+00 -0.103252D-01 -0.643581D-01  0.125000D-03
     75  0.000000D+00  0.000000D+00 -0.880398D-02 -0.548761D-01  0.752951D-02
     76  0.000000D+00  0.000000D+00  0.152667D-01  0.353941D-01  0.000000D+00
     77  0.000000D+00  0.000000D+00  0.102328D-02 -0.445628D-01  0.000000D+00
     78  0.806946D-02 -0.946727D-02  0.000000D+00  0.000000D+00  0.000000D+00
     79 -0.693730D-02  0.616305D-03  0.758814D-02 -0.135898D-02  0.000000D+00
     80 -0.503354D-01  0.447176D-02  0.550577D-01 -0.986040D-02  0.472577D-05
     81 -0.417810D-01  0.371180D-02  0.457008D-01 -0.818466D-02  0.255316D-02
     82  0.446475D-01 -0.445258D-02 -0.427556D-01  0.874618D-02  0.000000D+00
     83 -0.445258D-02 -0.507638D-02  0.594222D-02  0.111936D-01  0.000000D+00
     84 -0.106637D-01  0.947354D-03  0.248619D-01 -0.445258D-02  0.000000D+00
     85  0.000000D+00  0.000000D+00 -0.340628D+00 -0.454453D-01  0.000000D+00
     86  0.000000D+00  0.000000D+00 -0.230468D+00 -0.307482D-01  0.218899D-02
     87  0.000000D+00  0.000000D+00 -0.428707D-01 -0.571966D-02  0.193201D-01
     88  0.000000D+00  0.000000D+00 -0.656672D-01  0.390959D+00 -0.657583D-04
     89  0.000000D+00  0.000000D+00  0.196336D+00  0.527415D-01 -0.126683D-03
     90 -0.263139D-01  0.396209D+00  0.000000D+00  0.000000D+00  0.000000D+00
               46            47            48            49            50 
     46  0.100000D+01
     47  0.000000D+00  0.100000D+01
[...]
  90        4PZ        -0.00000   0.00000   0.00000   0.00000   0.00000
                          76        77        78        79        80
  76        4PX         0.00027
  77        4PY         0.00000   0.00104
  78        4PZ        -0.00000   0.00000   0.00030
  79 6   H  1S          0.00001   0.00001   0.00003   0.07985
  80        2S          0.00010   0.00008   0.00028   0.07755   0.15184
  81        3S          0.00004  -0.00014   0.00015   0.01446   0.04380
  82        4PX         0.00000   0.00000   0.00001   0.00000   0.00000
  83        4PY         0.00000   0.00003   0.00001   0.00000   0.00000
  84        4PZ         0.00000   0.00001   0.00000   0.00000   0.00000
  85 7   H  1S         -0.00000  -0.00000   0.00000  -0.00000  -0.00001
  86        2S         -0.00000   0.00000   0.00000  -0.00001  -0.00007
  87        3S         -0.00001   0.00002   0.00000   0.00002   0.00045
  88        4PX         0.00000  -0.00000  -0.00000  -0.00000  -0.00001
  89        4PY        -0.00000  -0.00000  -0.00000  -0.00000  -0.00000
  90        4PZ         0.00000   0.00000   0.00000   0.00000   0.00000
                          81        82        83        84        85
  81        3S          0.02671
  82        4PX         0.00000   0.00058
  83        4PY         0.00000   0.00000   0.00037
  84        4PZ         0.00000  -0.00000  -0.00000   0.00078
  85 7   H  1S         -0.00014  -0.00000  -0.00000  -0.00000   0.08088
  86        2S         -0.00048  -0.00002  -0.00001  -0.00000   0.08283
  87        3S          0.00018  -0.00014  -0.00005   0.00001   0.01893
  88        4PX        -0.00003   0.00000   0.00000  -0.00000   0.00000
  89        4PY        -0.00002   0.00000   0.00000   0.00000   0.00000
  90        4PZ        -0.00001   0.00000  -0.00000   0.00000   0.00000
                          86        87        88        89        90
  86        2S          0.17501
  87        3S          0.06915   0.07257
  88        4PX         0.00000   0.00000   0.00017
  89        4PY         0.00000   0.00000  -0.00000   0.00122
  90        4PZ         0.00000   0.00000  -0.00000   0.00000   0.00020
     Gross orbital populations:
                           1
   1 1   C  1S          1.10314
   2        2S          0.88557
   3        2PX         0.21577
   4        2PY         0.22540
   5        2PZ         0.21836
   6        3S          0.75252
   7        3PX         0.50961
   8        3PY         0.52041
   9        3PZ         0.51051
  10        4S          0.46879
  11        4PX         0.23709
  12        4PY         0.32818
  13        4PZ         0.32707
  14        5S          0.14302
  15        5PX        -0.00492
  16        5PY         0.01301
  17        5PZ         0.00352
  18        6D 0        0.00779
  19        6D+1        0.00852
  20        6D-1        0.00483
  21        6D+2        0.01185
  22        6D-2        0.00724
  23 2   C  1S          1.10360
  24        2S          0.88535
  25        2PX         0.24388
  26        2PY         0.23855
  27        2PZ         0.13810
  28        3S          0.80325
  29        3PX         0.51121
  30        3PY         0.52043
  31        3PZ         0.34456
  32        4S          0.41148
  33        4PX         0.08942
  34        4PY         0.21317
  35        4PZ         0.22848
  36        5S         -0.06977
  37        5PX        -0.01011
  38        5PY         0.02083
  39        5PZ         0.01393
  40        6D 0        0.00499
  41        6D+1        0.02342
  42        6D-1        0.00715
  43        6D+2        0.06700
  44        6D-2        0.03095
  45 3   O  1S          1.08397
  46        2S          0.90911
  47        2PX         0.33969
  48        2PY         0.36831
  49        2PZ         0.25859
  50        3S          1.02175
  51        3PX         0.69664
  52        3PY         0.74611
  53        3PZ         0.55405
  54        4S          0.85748
  55        4PX         0.39065
  56        4PY         0.49271
  57        4PZ         0.45577
  58        5S          0.02954
  59        5PX         0.00724
  60        5PY         0.02101
  61        5PZ         0.02018
  62        6D 0        0.00188
  63        6D+1        0.00349
  64        6D-1        0.00156
  65        6D+2        0.00411
  66        6D-2        0.00569
  67 4   H  1S          0.27149
  68        2S          0.47227
  69        3S          0.07561
  70        4PX         0.00769
  71        4PY         0.00572
  72        4PZ         0.01037
  73 5   H  1S          0.27465
  74        2S          0.46260
  75        3S          0.07209
  76        4PX         0.00431
  77        4PY         0.01354
  78        4PZ         0.00487
  79 6   H  1S          0.27149
  80        2S          0.47227
  81        3S          0.07561
  82        4PX         0.00769
  83        4PY         0.00572
  84        4PZ         0.01037
  85 7   H  1S          0.27509
  86        2S          0.49479
  87        3S          0.10418
  88        4PX         0.00267
  89        4PY         0.01529
  90        4PZ         0.00293
          Condensed to atoms (all electrons):
               1          2          3          4          5          6
     1  C    5.196917   0.279576  -0.112173   0.402490   0.407635   0.402490
     2  C    0.279576   4.882670   0.418451  -0.040793  -0.037257  -0.040793
     3  O   -0.112173   0.418451   8.017387   0.001559   0.003785   0.001559
     4  H    0.402490  -0.040793   0.001559   0.531738  -0.020922  -0.030592
     5  H    0.407635  -0.037257   0.003785  -0.020922   0.493332  -0.020922
     6  H    0.402490  -0.040793   0.001559  -0.030592  -0.020922   0.531738
     7  H   -0.079647   0.358009  -0.061041  -0.000325   0.006415  -0.000325
               7
     1  C   -0.079647
     2  C    0.358009
     3  O   -0.061041
     4  H   -0.000325
     5  H    0.006415
     6  H   -0.000325
     7  H    0.671860
 Mulliken charges:
               1
     1  C   -0.497289
     2  C    0.180136
     3  O   -0.269526
     4  H    0.156845
     5  H    0.167935
     6  H    0.156845
     7  H    0.105054
 Sum of Mulliken charges =   0.00000
 Mulliken charges with hydrogens summed into heavy atoms:
               1
     1  C   -0.015664
     2  C    0.285189
     3  O   -0.269526
 Electronic spatial extent (au):  <R**2>=            168.2946
 Charge=             -0.0000 electrons
 Dipole moment (field-independent basis, Debye):
    X=              2.6962    Y=              1.2006    Z=              0.0000  Tot=              2.9514
 Quadrupole moment (field-independent basis, Debye-Ang):
   XX=            -21.4366   YY=            -18.2527   ZZ=            -18.0807
   XY=             -1.0960   XZ=              0.0000   YZ=              0.0000
 Traceless Quadrupole moment (field-independent basis, Debye-Ang):
   XX=             -2.1799   YY=              1.0039   ZZ=              1.1759
   XY=             -1.0960   XZ=              0.0000   YZ=              0.0000
 Octapole moment (field-independent basis, Debye-Ang**2):
  XXX=              2.2056  YYY=             -0.5709  ZZZ=              0.0000  XYY=             -0.7523
  XXY=              0.9055  XXZ=             -0.0000  XZZ=             -0.4275  YZZ=              0.1843
  YYZ=             -0.0000  XYZ=             -0.0000
 Hexadecapole moment (field-independent basis, Debye-Ang**3):
 XXXX=           -156.5359 YYYY=            -43.5240 ZZZZ=            -24.4575 XXXY=              1.3754
 XXXZ=             -0.0000 YYYX=             -1.5751 YYYZ=              0.0000 ZZZX=              0.0000
 ZZZY=             -0.0000 XXYY=            -32.8081 XXZZ=            -26.8231 YYZZ=            -12.2001
 XXYZ=             -0.0000 YYXZ=             -0.0000 ZZXY=              1.1788
 N-N= 6.966818704558D+01 E-N=-4.992833502626D+02  KE= 1.532672907628D+02
 Orbital energies and kinetic energies (alpha):
                                 1                 2
   1         O               -19.132837         29.129162
   2         O               -10.272911         15.958534
   3         O               -10.188315         15.954629
   4         O                -1.063198          2.729655
   5         O                -0.763787          1.466871
   6         O                -0.590492          1.534198
   7         O                -0.489783          1.542476
   8         O                -0.455619          1.112812
   9         O                -0.448669          1.984532
  10         O                -0.409234          1.289670
  11         O                -0.378213          1.744314
  12         O                -0.269728          2.186792
  13         V                -0.040833          1.783245
  14         V                 0.002940          0.345634
  15         V                 0.024098          0.313893
  16         V                 0.044297          0.244059
  17         V                 0.045302          0.260351
  18         V                 0.073439          0.264778
  19         V                 0.075002          0.341529
  20         V                 0.088516          0.263063
  21         V                 0.124234          0.483366
  22         V                 0.130361          0.643605
  23         V                 0.146415          0.444508
  24         V                 0.170474          0.861836
  25         V                 0.211394          0.658779
  26         V                 0.227697          0.774763
  27         V                 0.246947          0.762510
  28         V                 0.248126          0.710607
  29         V                 0.280595          1.326959
  30         V                 0.291265          0.953082
  31         V                 0.388925          1.102271
  32         V                 0.414821          0.904686
  33         V                 0.433242          1.236210
  34         V                 0.495814          1.796466
  35         V                 0.504570          1.147629
  36         V                 0.526021          1.511858
  37         V                 0.572668          1.744063
  38         V                 0.586088          1.862139
  39         V                 0.616811          2.118650
  40         V                 0.650054          1.737522
  41         V                 0.683166          1.852517
  42         V                 0.831363          2.717573
  43         V                 0.857392          2.244585
  44         V                 0.953742          1.839999
  45         V                 1.067180          2.701758
  46         V                 1.083986          2.510702
  47         V                 1.125298          2.566525
  48         V                 1.180687          2.050498
  49         V                 1.213490          2.057542
  50         V                 1.423066          2.086878
  51         V                 1.434720          2.382606
  52         V                 1.444145          3.573803
  53         V                 1.507513          2.469332
  54         V                 1.523605          2.907848
  55         V                 1.527607          2.366063
  56         V                 1.539005          2.759122
  57         V                 1.669250          2.932353
  58         V                 1.716742          2.680756
  59         V                 1.732600          2.666286
  60         V                 1.885458          2.939410
  61         V                 1.894062          3.144914
  62         V                 2.036979          3.183477
  63         V                 2.114450          3.809163
  64         V                 2.200155          3.424552
  65         V                 2.256950          3.997969
  66         V                 2.403220          4.433303
  67         V                 2.445630          4.458999
  68         V                 2.467650          4.431814
  69         V                 2.494260          3.755882
  70         V                 2.530777          4.199130
  71         V                 2.574528          3.838303
  72         V                 2.682659          4.716765
  73         V                 2.711858          5.880926
  74         V                 2.809316          4.702716
  75         V                 2.889037          4.599227
  76         V                 2.894442          4.950552
  77         V                 3.075217          6.397564
  78         V                 3.334010          5.249886
  79         V                 3.466888          6.276703
  80         V                 3.473723          5.537810
  81         V                 3.759794          6.323425
  82         V                 3.810181          6.524507
  83         V                 3.862591          6.382977
  84         V                 4.124300          7.264115
  85         V                 4.999302         11.813067
  86         V                 5.089359         11.807923
  87         V                 5.680515         12.207866
  88         V                23.840534         60.328508
  89         V                23.928968         60.363423
  90         V                49.934492        123.701854
 Total kinetic energy from orbitals= 1.532672907628D+02
 No NMR shielding tensors so no spin-rotation constants.
 Leave Link  601 at Wed Aug  7 16:52:37 2024, MaxMem=  1342177280 cpu:               1.8 elap:               0.5
 (Enter /opt/g16/l604.exe)
 Evaluate density.
 Using the total density.
 Monte-Carlo method of calculating molar volume:
 based on  0.001 e/bohr**3 density envelope.
 Number of points per bohr**3 =  100 CutOff= 1.00D-04
 Using the SCF density.
 There are      1431 points.  Will hold      1431 in memory.
 LenV=  1342030007 MDV=  1342177280.
 Box volume = 2933.852 fraction occupied=0.167
 Integrated density= 3.6058558614018864D+01 error= 1.2058558614018864D+01
 Molar volume =  490.000 bohr**3/mol ( 43.727 cm**3/mol)
 Recommended a0 for SCRF calculation =  3.35 angstrom (  6.33 bohr)
 Leave Link  604 at Wed Aug  7 16:52:38 2024, MaxMem=  1342177280 cpu:               1.4 elap:               0.4
 (Enter /opt/g16/l9999.exe)

 Test job not archived.
 1\1\GINC-BOHRIUM-11729-1174566\SP\RB3LYP\6-311+G(d,p)\C2H4O1\ROOT\07-A
 ug-2024\0\\#P b3lyp/6-311+g(d,p) em=gd3 volume=tight IOp(5/33=2, 3/33=
 1) Guess=read Geom=allcheck SCF=Restart Pop=Full\\ep-15_vum\\0,1\C,0,-
 0.6477783244,-0.0634178991,-0.0073702132\C,0,0.8471485349,0.107371867,
 -0.0038614328\O,0,1.4327428801,1.0460738404,-0.4841226081\H,0,-1.00686
 19135,-0.1518423674,1.0240862916\H,0,-1.1335465123,0.7768861828,-0.503
 4058035\H,0,-0.9062679107,-1.0007748079,-0.5125509606\H,0,1.4145642477
 ,-0.7142968112,0.4872237348\\Version=ES64L-G16RevA.03\State=1-A\HF=-15
 3.8840701\RMSD=3.932e-10\Dipole=-0.7308375,-0.8092113,0.3992144\Quadru
 pole=-0.4734487,-0.1698643,0.643313,-1.2925448,0.6258532,0.4922365\PG=
 C01 [X(C2H4O1)]\\@


                                                                                    A
                                                                                  AA
                                                                                 AAA
                                                                                AAAA
                                                                               AAAAA
                                                                              AAAAAA   KKKKKKKK
                                                                             AAAAAAA   KKKKKKKK
                                                                            AAAAAAAA   KKKKKKKK
                                       ZZZZZZZZZZZZZZZZZZZZ                AAAA  AAA   KKKKKKKK
                                       ZZZZZZZZZZZZZZZZZZZ                AAAA   AAA   KKKKKKKK          K
                                       ZZZZZZZZZZZZZZZZZZ                AAAA    AAA   KKKKKKKK         KKK
                                       ZZZZZZZZZZZZZZZZZ                AAAA     AAA   KKKKKKKK        KKKKK
                                       ZZZZZZZZZZZZZZZZ                AAAA      AAA   KKKKKKKK       KKKKKKK
                                                ZZZZZZ                AAAA       AAA   KKKKKKKK      KKKKKKK
                                               ZZZZZZ                AAAA        AAA   KKKKKKKK     KKKKKKK
                                              ZZZZZZ                AAAA         AAA   KKKKKKKK    KKKKKKK
                                             ZZZZZZ                AAAA          AAA   KKKKKKKK   KKKKKKK
                                            ZZZZZZ                AAAAAAAAAAAAAAAAAA   KKKKKKKK  KKKKKKK
                                           ZZZZZZ                AAAAAAAAAAAAAAAAAAA   KKKKKKKK KKKKKKK
                                          ZZZZZZ                AAAAAAAAAAAAAAAAAAAA   KKKKKKKKKKKKKKK
                                         ZZZZZZ                AAAAAAAAAAAAAAAAAAAAA   KKKKKKKKKKKKKK
                                        ZZZZZZ                AAAAAA        AAAAAAAA   KKKKKKKKKKKKK
                                       ZZZZZZ                AAAAAA         AAAAAAAA   KKKKKKKKKKKK
                                      ZZZZZZ                AAAAAA          AAAAAAAA   KKKKKKKKKKK
                                     ZZZZZZ                AAAAAA           AAAAAAAA   KKKKKKKKKKKK
                                    ZZZZZZ                AAAAAA            AAAAAAAA   KKKKKKKKKKKKK
                                   ZZZZZZ                AAAAAA             AAAAAAAA   KKKKKKKKKKKKKK
                                  ZZZZZZ                AAAAAA              AAAAAAAA   KKKKKKKKKKKKKKK
                                 ZZZZZZ                AAAAAA               AAAAAAAA   KKKKK KKKKKKKKKK
                                ZZZZZZ                AAAAAA                AAAAAAAA   KKKKK  KKKKKKKKKK
                               ZZZZZZ                AAAAAA                            KKKKK   KKKKKKKKKK
                              ZZZZZZ                AAAAAA                             KKKKK    KKKKKKKKKK
                             ZZZZZZ                                                    KKKKK     KKKKKKKKKK
                            ZZZZZZ                                                     KKKKK      KKKKKKKKKK
                           ZZZZZZ                                                      KKKKK       KKKKKKKKKK
                          ZZZZZZ                                                       KKKKK        KKKKKKKKKK
                         ZZZZZZZZZZZZZZZZZZZZZZZZZZZZZZZZZZZZZZZZ                      KKKKK         KKKKKKKKKK
                        ZZZZZZZZZZZZZZZZZZZZZZZZZZZZZZZZZZZZZZZZZ                      KKKKK          KKKKKKKKKK
                       ZZZZZZZZZZZZZZZZZZZZZZZZZZZZZZZZZZZZZZZZZZ                      KKKKK           KKKKKKKKKK
                       ZZZZZZZZZZZZZZZZZZZZZZZZZZZZZZZZZZZZZZZZZZ                      KKKKK            KKKKKKKKKK
                       ZZZZZZZZZZZZZZZZZZZZZZZZZZZZZZZZZZZZZZZZZZ                      KKKKK             KKKKKKKKKK
                       ZZZZZZZZZZZZZZZZZZZZZZZZZZZZZZZZZZZZZZZZZZ                      KKKKK              KKKKKKKKKK
                       ZZZZZZZZZZZZZZZZZZZZZZZZZZZZZZZZZZZZZZZZZZ                      KKKKK               KKKKKKKKKK
                       ZZZZZZZZZZZZZZZZZZZZZZZZZZZZZZZZZZZZZZZZZZ                      KKKKK                KKKKKKKKKK
                       ZZZZZZZZZZZZZZZZZZZZZZZZZZZZZZZZZZZZZZZZZZ                      KKKKK
                                                                                       KKKKK
                                                                                          (J.P.)
 Job cpu time:       0 days  0 hours  0 minutes 13.1 seconds.
 Elapsed time:       0 days  0 hours  0 minutes  3.3 seconds.
 File lengths (MBytes):  RWF=      6 Int=      0 D2E=      0 Chk=      2 Scr=      1
 Normal termination of Gaussian 16 at Wed Aug  7 16:52:38 2024.
