 Entering Gaussian System, Link 0=g16
 Input=gau.gjf
 Output=gau.log
 Initial command:
 /opt/g16/l1.exe "/root/scratch/Gau-499.inp" -scrdir="/root/scratch/"
 Entering Link 1 = /opt/g16/l1.exe PID=       501.
  
 Copyright (c) 1988,1990,1992,1993,1995,1998,2003,2009,2016,
            Gaussian, Inc.  All Rights Reserved.
  
 This is part of the Gaussian(R) 16 program.  It is based on
 the Gaussian(R) 09 system (copyright 2009, Gaussian, Inc.),
 the Gaussian(R) 03 system (copyright 2003, Gaussian, Inc.),
 the Gaussian(R) 98 system (copyright 1998, Gaussian, Inc.),
 the Gaussian(R) 94 system (copyright 1995, Gaussian, Inc.),
 the Gaussian 92(TM) system (copyright 1992, Gaussian, Inc.),
 the Gaussian 90(TM) system (copyright 1990, Gaussian, Inc.),
 the Gaussian 88(TM) system (copyright 1988, Gaussian, Inc.),
 the Gaussian 86(TM) system (copyright 1986, Carnegie Mellon
 University), and the Gaussian 82(TM) system (copyright 1983,
 Carnegie Mellon University). Gaussian is a federally registered
 trademark of Gaussian, Inc.
  
 This software contains proprietary and confidential information,
 including trade secrets, belonging to Gaussian, Inc.
  
 This software is provided under written license and may be
 used, copied, transmitted, or stored only in accord with that
 written license.
  
 The following legend is applicable only to US Government
 contracts under FAR:
  
                    RESTRICTED RIGHTS LEGEND
  
 Use, reproduction and disclosure by the US Government is
 subject to restrictions as set forth in subparagraphs (a)
 and (c) of the Commercial Computer Software - Restricted
 Rights clause in FAR 52.227-19.
  
 Gaussian, Inc.
 340 Quinnipiac St., Bldg. 40, Wallingford CT 06492
  
  
 ---------------------------------------------------------------
 Warning -- This program may not be used in any manner that
 competes with the business of Gaussian, Inc. or will provide
 assistance to any competitor of Gaussian, Inc.  The licensee
 of this program is prohibited from giving any competitor of
 Gaussian, Inc. access to this program.  By using this program,
 the user acknowledges that Gaussian, Inc. is engaged in the
 business of creating and licensing software in the field of
 computational chemistry and represents and warrants to the
 licensee that it is not a competitor of Gaussian, Inc. and that
 it will not use this program in any manner prohibited above.
 ---------------------------------------------------------------
  

 Cite this work as:
 Gaussian 16, Revision A.03,
 M. J. Frisch, G. W. Trucks, H. B. Schlegel, G. E. Scuseria, 
 M. A. Robb, J. R. Cheeseman, G. Scalmani, V. Barone, 
 G. A. Petersson, H. Nakatsuji, X. Li, M. Caricato, A. V. Marenich, 
 J. Bloino, B. G. Janesko, R. Gomperts, B. Mennucci, H. P. Hratchian, 
 J. V. Ortiz, A. F. Izmaylov, J. L. Sonnenberg, D. Williams-Young, 
 F. Ding, F. Lipparini, F. Egidi, J. Goings, B. Peng, A. Petrone, 
 T. Henderson, D. Ranasinghe, V. G. Zakrzewski, J. Gao, N. Rega, 
 G. Zheng, W. Liang, M. Hada, M. Ehara, K. Toyota, R. Fukuda, 
 J. Hasegawa, M. Ishida, T. Nakajima, Y. Honda, O. Kitao, H. Nakai, 
 T. Vreven, K. Throssell, J. A. Montgomery, Jr., J. E. Peralta, 
 F. Ogliaro, M. J. Bearpark, J. J. Heyd, E. N. Brothers, K. N. Kudin, 
 V. N. Staroverov, T. A. Keith, R. Kobayashi, J. Normand, 
 K. Raghavachari, A. P. Rendell, J. C. Burant, S. S. Iyengar, 
 J. Tomasi, M. Cossi, J. M. Millam, M. Klene, C. Adamo, R. Cammi, 
 J. W. Ochterski, R. L. Martin, K. Morokuma, O. Farkas, 
 J. B. Foresman, and D. J. Fox, Gaussian, Inc., Wallingford CT, 2016.
 
 ******************************************
 Gaussian 16:  ES64L-G16RevA.03 25-Dec-2016
                 5-Sep-2024 
 ******************************************
 %mem=10GB
 %chk=gau.chk
 %nprocshared=6
 Will use up to    6 processors via shared memory.
 ----------------------------------------------------------------------
 #P b3lyp/6-311+g(d,p) em=gd3 volume=tight IOp(5/33=3, 3/33=1) pop=full
 ----------------------------------------------------------------------
 1/38=1,172=1/1;
 2/12=2,17=6,18=5,40=1/2;
 3/5=4,6=6,7=111,11=2,25=1,30=1,33=1,74=-5,124=31/1,2,3;
 4//1;
 5/5=2,33=3,38=5/2;
 6/7=3,28=1,44=1,45=100/1,4;
 99/5=1,9=1/99;
 Leave Link    1 at Thu Sep  5 15:46:11 2024, MaxMem=  1342177280 cpu:               0.1 elap:               0.1
 (Enter /opt/g16/l101.exe)
 ------------------------------
 Gaussian input prepared by ASE
 ------------------------------
 Symbolic Z-matrix:
 Charge =  0 Multiplicity = 1
 C                     0.        0.        0. 
 H                     0.62912   0.62912   0.62912 
 H                    -0.62912  -0.62912   0.62912 
 H                     0.62912  -0.62912  -0.62912 
 H                    -0.62912   0.62912  -0.62912 
 
 ITRead=  0  0  0  0  0
 MicOpt= -1 -1 -1 -1 -1
 NAtoms=      5 NQM=        5 NQMF=       0 NMMI=      0 NMMIF=      0
                NMic=       0 NMicF=      0.
                    Isotopes and Nuclear Properties:
 (Nuclear quadrupole moments (NQMom) in fm**2, nuclear magnetic moments (NMagM)
  in nuclear magnetons)

  Atom         1           2           3           4           5
 IAtWgt=          12           1           1           1           1
 AtmWgt=  12.0000000   1.0078250   1.0078250   1.0078250   1.0078250
 NucSpn=           0           1           1           1           1
 AtZEff=  -0.0000000  -0.0000000  -0.0000000  -0.0000000  -0.0000000
 NQMom=    0.0000000   0.0000000   0.0000000   0.0000000   0.0000000
 NMagM=    0.0000000   2.7928460   2.7928460   2.7928460   2.7928460
 AtZNuc=   6.0000000   1.0000000   1.0000000   1.0000000   1.0000000
 Leave Link  101 at Thu Sep  5 15:46:12 2024, MaxMem=  1342177280 cpu:               0.6 elap:               0.3
 (Enter /opt/g16/l202.exe)
                          Input orientation:                          
 ---------------------------------------------------------------------
 Center     Atomic      Atomic             Coordinates (Angstroms)
 Number     Number       Type             X           Y           Z
 ---------------------------------------------------------------------
      1          6           0        0.000000    0.000000    0.000000
      2          1           0        0.629118    0.629118    0.629118
      3          1           0       -0.629118   -0.629118    0.629118
      4          1           0        0.629118   -0.629118   -0.629118
      5          1           0       -0.629118    0.629118   -0.629118
 ---------------------------------------------------------------------
                    Distance matrix (angstroms):
                    1          2          3          4          5
     1  C    0.000000
     2  H    1.089664   0.000000
     3  H    1.089664   1.779414   0.000000
     4  H    1.089664   1.779414   1.779414   0.000000
     5  H    1.089664   1.779414   1.779414   1.779414   0.000000
 Stoichiometry    CH4
 Framework group  TD[O(C),4C3(H)]
 Deg. of freedom     1
 Full point group                 TD      NOp  24
 Largest Abelian subgroup         D2      NOp   4
 Largest concise Abelian subgroup D2      NOp   4
                         Standard orientation:                         
 ---------------------------------------------------------------------
 Center     Atomic      Atomic             Coordinates (Angstroms)
 Number     Number       Type             X           Y           Z
 ---------------------------------------------------------------------
      1          6           0        0.000000    0.000000    0.000000
      2          1           0        0.629118    0.629118    0.629118
      3          1           0       -0.629118   -0.629118    0.629118
      4          1           0        0.629118   -0.629118   -0.629118
      5          1           0       -0.629118    0.629118   -0.629118
 ---------------------------------------------------------------------
 Rotational constants (GHZ):         158.3717979         158.3717979         158.3717979
 Leave Link  202 at Thu Sep  5 15:46:12 2024, MaxMem=  1342177280 cpu:               2.0 elap:               0.5
 (Enter /opt/g16/l301.exe)
 Standard basis: 6-311+G(d,p) (5D, 7F)
                         Coordinates in L301:                         
 ---------------------------------------------------------------------
 Center     Atomic      Atomic             Coordinates (Angstroms)
 Number     Number       Type             X           Y           Z
 ---------------------------------------------------------------------
      1          6           0        0.000000    0.000000    0.000000
      2          1           0        0.629118    0.629118    0.629118
      3          1           0       -0.629118   -0.629118    0.629118
      4          1           0        0.629118   -0.629118   -0.629118
      5          1           0       -0.629118    0.629118   -0.629118
 ---------------------------------------------------------------------
 FixB: optimizing general contractions.
 Ernie: Thresh=  0.10000D-02 Tol=  0.10000D-05 Strict=F.
 IA=     1 ShT= 0 ShC= 0 NL=   1 NS=   0.
 IA=     1 L=0 SC=0 ISt=    0 NBk=    0 NP=    0 IndPr=    0.
 IA=     1 ShT= 1 ShC= 0 NL=   4 NS=   3.
 IA=     1 L=1 SC=0 ISt=    0 NBk=    0 NP=    0 IndPr=    0.
 IA=     1 ShT= 2 ShC= 2 NL=   1 NS=   1.
 IA=     1 L=2 SC=2 ISt=    0 NBk=    0 NP=    0 IndPr=    0.
 IA=     2 ShT= 0 ShC= 0 NL=   3 NS=   2.
 IA=     2 L=0 SC=0 ISt=    0 NBk=    0 NP=    0 IndPr=    0.
 IA=     2 ShT= 1 ShC= 1 NL=   1 NS=   1.
 IA=     2 L=1 SC=1 ISt=    0 NBk=    0 NP=    0 IndPr=    0.
 IA=     3 ShT= 0 ShC= 0 NL=   3 NS=   2.
 IA=     3 L=0 SC=0 ISt=    0 NBk=    0 NP=    0 IndPr=    0.
 IA=     3 ShT= 1 ShC= 1 NL=   1 NS=   1.
 IA=     3 L=1 SC=1 ISt=    0 NBk=    0 NP=    0 IndPr=    0.
 IA=     4 ShT= 0 ShC= 0 NL=   3 NS=   2.
 IA=     4 L=0 SC=0 ISt=    0 NBk=    0 NP=    0 IndPr=    0.
 IA=     4 ShT= 1 ShC= 1 NL=   1 NS=   1.
 IA=     4 L=1 SC=1 ISt=    0 NBk=    0 NP=    0 IndPr=    0.
 IA=     5 ShT= 0 ShC= 0 NL=   3 NS=   2.
 IA=     5 L=0 SC=0 ISt=    0 NBk=    0 NP=    0 IndPr=    0.
 IA=     5 ShT= 1 ShC= 1 NL=   1 NS=   1.
 IA=     5 L=1 SC=1 ISt=    0 NBk=    0 NP=    0 IndPr=    0.
 LdAtmC:  AtmChg=     6.000000     1.000000     1.000000     1.000000     1.000000
 AtZEff=     -3.6000000     -1.0000000     -1.0000000     -1.0000000     -1.0000000
 NEqShl: 
              1            2            3            4            5
     1            1            1            1            1            1
     2            2            2            2            2            2
     3            3            3            3            3            3
     4            4            4            4            4            4
     5            5            5            5            5            5
     6            6            6            6            6            6
     7            7           15           19           11            7
     8            8           16           20           12            8
     9            9           17           21           13            9
    10           10           18           22           14           10
    11           11           19           15            7           19
    12           12           20           16            8           20
    13           13           21           17            9           21
    14           14           22           18           10           22
    15           15            7           11           19           11
    16           16            8           12           20           12
    17           17            9           13           21           13
    18           18           10           14           22           14
    19           19           11            7           15           15
    20           20           12            8           16           16
    21           21           13            9           17           17
    22           22           14           10           18           18
              6            7            8            9           10
     1            1            1            1            1            1
     2            2            2            2            2            2
     3            3            3            3            3            3
     4            4            4            4            4            4
     5            5            5            5            5            5
     6            6            6            6            6            6
     7            7           15           11           11           19
     8            8           16           12           12           20
     9            9           17           13           13           21
    10           10           18           14           14           22
    11           15            7           15           19            7
    12           16            8           16           20            8
    13           17            9           17           21            9
    14           18           10           18           22           10
    15           19           11            7           15           15
    16           20           12            8           16           16
    17           21           13            9           17           17
    18           22           14           10           18           18
    19           11           19           19            7           11
    20           12           20           20            8           12
    21           13           21           21            9           13
    22           14           22           22           10           14
             11           12           13           14           15
     1            1            1            1            1            1
     2            2            2            2            2            2
     3            3            3            3            3            3
     4            4            4            4            4            4
     5            5            5            5            5            5
     6            6            6            6            6            6
     7           15           19           19           11           11
     8           16           20           20           12           12
     9           17           21           21           13           13
    10           18           22           22           14           14
    11           11           11            7           15           19
    12           12           12            8           16           20
    13           13           13            9           17           21
    14           14           14           10           18           22
    15           19            7           11           19            7
    16           20            8           12           20            8
    17           21            9           13           21            9
    18           22           10           14           22           10
    19            7           15           15            7           15
    20            8           16           16            8           16
    21            9           17           17            9           17
    22           10           18           18           10           18
             16           17           18           19           20
     1            1            1            1            1            1
     2            2            2            2            2            2
     3            3            3            3            3            3
     4            4            4            4            4            4
     5            5            5            5            5            5
     6            6            6            6            6            6
     7           15           15           19           15            7
     8           16           16           20           16            8
     9           17           17           21           17            9
    10           18           18           22           18           10
    11            7           19           15           11           19
    12            8           20           16           12           20
    13            9           21           17           13           21
    14           10           22           18           14           22
    15           19           11            7            7           15
    16           20           12            8            8           16
    17           21           13            9            9           17
    18           22           14           10           10           18
    19           11            7           11           19           11
    20           12            8           12           20           12
    21           13            9           13           21           13
    22           14           10           14           22           14
             21           22           23           24
     1            1            1            1            1
     2            2            2            2            2
     3            3            3            3            3
     4            4            4            4            4
     5            5            5            5            5
     6            6            6            6            6
     7            7           19           11            7
     8            8           20           12            8
     9            9           21           13            9
    10           10           22           14           10
    11           15           11            7           11
    12           16           12            8           12
    13           17           13            9           13
    14           18           14           10           14
    15           11           15           15           19
    16           12           16           16           20
    17           13           17           17           21
    18           14           18           18           22
    19           19            7           19           15
    20           20            8           20           16
    21           21            9           21           17
    22           22           10           22           18
 NEqBas: 
              1            2            3            4
     1            1            1            1            1
     2            2            2            2            2
     3            3            3           -3           -3
     4            4           -4            4           -4
     5            5           -5           -5            5
     6            6            6            6            6
     7            7            7           -7           -7
     8            8           -8            8           -8
     9            9           -9           -9            9
    10           10           10           10           10
    11           11           11          -11          -11
    12           12          -12           12          -12
    13           13          -13          -13           13
    14           14           14           14           14
    15           15           15          -15          -15
    16           16          -16           16          -16
    17           17          -17          -17           17
    18           18           18           18           18
    19           19           19           19           19
    20           20           20           20           20
    21           21          -21          -21           21
    22           22          -22           22          -22
    23           23           23          -23          -23
    24           24           36           42           30
    25           25           37           43           31
    26           26           38           44           32
    27           27           39          -45          -33
    28           28          -40           46          -34
    29           29          -41          -47           35
    30           30           42           36           24
    31           31           43           37           25
    32           32           44           38           26
    33           33           45          -39          -27
    34           34          -46           40          -28
    35           35          -47          -41           29
    36           36           24           30           42
    37           37           25           31           43
    38           38           26           32           44
    39           39           27          -33          -45
    40           40          -28           34          -46
    41           41          -29          -35           47
    42           42           30           24           36
    43           43           31           25           37
    44           44           32           26           38
    45           45           33          -27          -39
    46           46          -34           28          -40
    47           47          -35          -29           41
 There are    14 symmetry adapted cartesian basis functions of A   symmetry.
   1         1   1   1   1
   2         2   2   2   2
   3         6   6   6   6
   4        10  10  10  10
   5        14  14  14  14
   6        18  18  18  18
   7        19  19  19  19
   8        20  20  20  20
   9        24  30  42  36
  10        25  31  43  37
  11        26  32  44  38
  12        27 -33 -45  39
  13        28 -34  46 -40
  14        29  35 -47 -41
 There are    11 symmetry adapted cartesian basis functions of B1  symmetry.
  15         5   5   5   5
  16         9   9   9   9
  17        13  13  13  13
  18        17  17  17  17
  19        21  21  21  21
  20        24  30 -42 -36
  21        25  31 -43 -37
  22        26  32 -44 -38
  23        27 -33  45 -39
  24        28 -34 -46  40
  25        29  35  47  41
 There are    11 symmetry adapted cartesian basis functions of B2  symmetry.
  26         4   4   4   4
  27         8   8   8   8
  28        12  12  12  12
  29        16  16  16  16
  30        22  22  22  22
  31        24 -30  42 -36
  32        25 -31  43 -37
  33        26 -32  44 -38
  34        27  33 -45 -39
  35        28  34  46  40
  36        29 -35 -47  41
 There are    11 symmetry adapted cartesian basis functions of B3  symmetry.
  37         3   3   3   3
  38         7   7   7   7
  39        11  11  11  11
  40        15  15  15  15
  41        23  23  23  23
  42        24 -30 -42  36
  43        25 -31 -43  37
  44        26 -32 -44  38
  45        27  33  45  39
  46        28  34 -46 -40
  47        29 -35  47 -41
 Order= 1 4 3 2
 Reordered character table:
              1            2            3            4            5
     1            1            1            1            1            1
     2            4            1           -1           -1            1
     3            3            1           -1            1           -1
     4            2            1            1           -1           -1
 NEqShl: 
              1            2            3            4            5
     1            1            1            1            1            1
     2            2            2            2            2            2
     3            3            3            3            3            3
     4            4            4            4            4            4
     5            5            5            5            5            5
     6            6            6            6            6            6
     7            7           15           19           11            7
     8            8           16           20           12            8
     9            9           17           21           13            9
    10           10           18           22           14           10
    11           11           19           15            7           19
    12           12           20           16            8           20
    13           13           21           17            9           21
    14           14           22           18           10           22
    15           15            7           11           19           11
    16           16            8           12           20           12
    17           17            9           13           21           13
    18           18           10           14           22           14
    19           19           11            7           15           15
    20           20           12            8           16           16
    21           21           13            9           17           17
    22           22           14           10           18           18
              6            7            8            9           10
     1            1            1            1            1            1
     2            2            2            2            2            2
     3            3            3            3            3            3
     4            4            4            4            4            4
     5            5            5            5            5            5
     6            6            6            6            6            6
     7            7           15           11           11           19
     8            8           16           12           12           20
     9            9           17           13           13           21
    10           10           18           14           14           22
    11           15            7           15           19            7
    12           16            8           16           20            8
    13           17            9           17           21            9
    14           18           10           18           22           10
    15           19           11            7           15           15
    16           20           12            8           16           16
    17           21           13            9           17           17
    18           22           14           10           18           18
    19           11           19           19            7           11
    20           12           20           20            8           12
    21           13           21           21            9           13
    22           14           22           22           10           14
             11           12           13           14           15
     1            1            1            1            1            1
     2            2            2            2            2            2
     3            3            3            3            3            3
     4            4            4            4            4            4
     5            5            5            5            5            5
     6            6            6            6            6            6
     7           15           19           19           11           11
     8           16           20           20           12           12
     9           17           21           21           13           13
    10           18           22           22           14           14
    11           11           11            7           15           19
    12           12           12            8           16           20
    13           13           13            9           17           21
    14           14           14           10           18           22
    15           19            7           11           19            7
    16           20            8           12           20            8
    17           21            9           13           21            9
    18           22           10           14           22           10
    19            7           15           15            7           15
    20            8           16           16            8           16
    21            9           17           17            9           17
    22           10           18           18           10           18
             16           17           18           19           20
     1            1            1            1            1            1
     2            2            2            2            2            2
     3            3            3            3            3            3
     4            4            4            4            4            4
     5            5            5            5            5            5
     6            6            6            6            6            6
     7           15           15           19           15            7
     8           16           16           20           16            8
     9           17           17           21           17            9
    10           18           18           22           18           10
    11            7           19           15           11           19
    12            8           20           16           12           20
    13            9           21           17           13           21
    14           10           22           18           14           22
    15           19           11            7            7           15
    16           20           12            8            8           16
    17           21           13            9            9           17
    18           22           14           10           10           18
    19           11            7           11           19           11
    20           12            8           12           20           12
    21           13            9           13           21           13
    22           14           10           14           22           14
             21           22           23           24
     1            1            1            1            1
     2            2            2            2            2
     3            3            3            3            3
     4            4            4            4            4
     5            5            5            5            5
     6            6            6            6            6
     7            7           19           11            7
     8            8           20           12            8
     9            9           21           13            9
    10           10           22           14           10
    11           15           11            7           11
    12           16           12            8           12
    13           17           13            9           13
    14           18           14           10           14
    15           11           15           15           19
    16           12           16           16           20
    17           13           17           17           21
    18           14           18           18           22
    19           19            7           19           15
    20           20            8           20           16
    21           21            9           21           17
    22           22           10           22           18
 NEqBas: 
              1            2            3            4
     1            1            1            1            1
     2            2            2            2            2
     3            3            3           -3           -3
     4            4           -4            4           -4
     5            5           -5           -5            5
     6            6            6            6            6
     7            7            7           -7           -7
     8            8           -8            8           -8
     9            9           -9           -9            9
    10           10           10           10           10
    11           11           11          -11          -11
    12           12          -12           12          -12
    13           13          -13          -13           13
    14           14           14           14           14
    15           15           15          -15          -15
    16           16          -16           16          -16
    17           17          -17          -17           17
    18           18           18           18           18
    19           19          -19           19          -19
    20           20           20          -20          -20
    21           21           21           21           21
    22           22          -22          -22           22
    23           23           35           41           29
    24           24           36           42           30
    25           25           37           43           31
    26           26           38          -44          -32
    27           27          -39           45          -33
    28           28          -40          -46           34
    29           29           41           35           23
    30           30           42           36           24
    31           31           43           37           25
    32           32           44          -38          -26
    33           33          -45           39          -27
    34           34          -46          -40           28
    35           35           23           29           41
    36           36           24           30           42
    37           37           25           31           43
    38           38           26          -32          -44
    39           39          -27           33          -45
    40           40          -28          -34           46
    41           41           29           23           35
    42           42           30           24           36
    43           43           31           25           37
    44           44           32          -26          -38
    45           45          -33           27          -39
    46           46          -34          -28           40
 There are    13 symmetry adapted basis functions of A   symmetry.
   1         1   1   1   1
   2         2   2   2   2
   3         6   6   6   6
   4        10  10  10  10
   5        14  14  14  14
   6        18  18  18  18
   7        21  21  21  21
   8        23  29  41  35
   9        24  30  42  36
  10        25  31  43  37
  11        26 -32 -44  38
  12        27 -33  45 -39
  13        28  34 -46 -40
 There are    11 symmetry adapted basis functions of B1  symmetry.
  14         5   5   5   5
  15         9   9   9   9
  16        13  13  13  13
  17        17  17  17  17
  18        22  22  22  22
  19        23  29 -41 -35
  20        24  30 -42 -36
  21        25  31 -43 -37
  22        26 -32  44 -38
  23        27 -33 -45  39
  24        28  34  46  40
 There are    11 symmetry adapted basis functions of B2  symmetry.
  25         4   4   4   4
  26         8   8   8   8
  27        12  12  12  12
  28        16  16  16  16
  29        19  19  19  19
  30        23 -29  41 -35
  31        24 -30  42 -36
  32        25 -31  43 -37
  33        26  32 -44 -38
  34        27  33  45  39
  35        28 -34 -46  40
 There are    11 symmetry adapted basis functions of B3  symmetry.
  36         3   3   3   3
  37         7   7   7   7
  38        11  11  11  11
  39        15  15  15  15
  40        20  20  20  20
  41        23 -29 -41  35
  42        24 -30 -42  36
  43        25 -31 -43  37
  44        26  32  44  38
  45        27  33 -45 -39
  46        28 -34  46 -40
 Order= 1 4 3 2
 Reordered character table:
              1            2            3            4            5
     1            1            1            1            1            1
     2            4            1           -1           -1            1
     3            3            1           -1            1           -1
     4            2            1            1           -1           -1
    46 basis functions,    68 primitive gaussians,    47 cartesian basis functions
     5 alpha electrons        5 beta electrons
       nuclear repulsion energy        13.4395278899 Hartrees.
 IS=     1 IAt=     1 ISR=     1 T=0 IP=      1 IndIP=      1 IndIPD=      0 C=  7.782018D-01  0.000000D+00                             NZ=T
 IS=     1 IAt=     1 ISR=     1 T=0 IP=      2 IndIP=      2 IndIPD=      1 C=  1.448695D+00  0.000000D+00                             NZ=T
 IS=     1 IAt=     1 ISR=     1 T=0 IP=      3 IndIP=      3 IndIPD=      2 C=  2.383089D+00  0.000000D+00                             NZ=T
 IS=     1 IAt=     1 ISR=     1 T=0 IP=      4 IndIP=      4 IndIPD=      3 C=  3.200089D+00  0.000000D+00                             NZ=T
 IS=     1 IAt=     1 ISR=     1 T=0 IP=      5 IndIP=      5 IndIPD=      4 C=  3.013004D+00  0.000000D+00                             NZ=T
 IS=     1 IAt=     1 ISR=     1 T=0 IP=      6 IndIP=      6 IndIPD=      5 C=  2.475986D-01  0.000000D+00                             NZ=T
 IS=     2 IAt=     1 ISR=     2 T=1 IP=      1 IndIP=      7 IndIPD=      0 C=  8.006285D-01  2.573592D+00                             NZ=T
 IS=     2 IAt=     1 ISR=     2 T=1 IP=      2 IndIP=      8 IndIPD=      1 C=  2.127420D+00  2.408248D+00                             NZ=T
 IS=     2 IAt=     1 ISR=     2 T=1 IP=      3 IndIP=      9 IndIPD=      2 C= -2.867911D-03  1.865281D+00                             NZ=T
 IS=     3 IAt=     1 ISR=     3 T=1 IP=      1 IndIP=     10 IndIPD=      0 C=  4.132166D-01  5.746273D-01                             NZ=T
 IS=     4 IAt=     1 ISR=     4 T=1 IP=      1 IndIP=     11 IndIPD=      0 C=  1.679761D-01  1.281846D-01                             NZ=T
 IS=     5 IAt=     1 ISR=     5 T=1 IP=      1 IndIP=     12 IndIPD=      0 C=  6.823633D-02  2.856161D-02                             NZ=T
 IS=     6 IAt=     1 ISR=     6 T=2 IP=      1 IndIP=     13 IndIPD=      1 C=  0.000000D+00  0.000000D+00  7.251278D-01  0.000000D+00 NZ=T
 IS=     7 IAt=     2 ISR=     1 T=0 IP=      1 IndIP=     14 IndIPD=      0 C=  2.550693D-01  0.000000D+00                             NZ=T
 IS=     7 IAt=     2 ISR=     1 T=0 IP=      2 IndIP=     15 IndIPD=      1 C=  4.601087D-01  0.000000D+00                             NZ=T
 IS=     7 IAt=     2 ISR=     1 T=0 IP=      3 IndIP=     16 IndIPD=      2 C=  6.783214D-01  0.000000D+00                             NZ=T
 IS=     8 IAt=     2 ISR=     2 T=0 IP=      1 IndIP=     17 IndIPD=      0 C=  3.073714D-01  0.000000D+00                             NZ=T
 IS=     9 IAt=     2 ISR=     3 T=0 IP=      1 IndIP=     18 IndIPD=      0 C=  1.293356D-01  0.000000D+00                             NZ=T
 IS=    10 IAt=     2 ISR=     4 T=1 IP=      1 IndIP=     19 IndIPD=      0 C=  0.000000D+00  9.948708D-01                             NZ=T
 IS=    11 IAt=     3 ISR=     1 T=0 IP=      1 IndIP=     20 IndIPD=      0 C=  2.550693D-01  0.000000D+00                             NZ=T
 IS=    11 IAt=     3 ISR=     1 T=0 IP=      2 IndIP=     21 IndIPD=      1 C=  4.601087D-01  0.000000D+00                             NZ=T
 IS=    11 IAt=     3 ISR=     1 T=0 IP=      3 IndIP=     22 IndIPD=      2 C=  6.783214D-01  0.000000D+00                             NZ=T
 IS=    12 IAt=     3 ISR=     2 T=0 IP=      1 IndIP=     23 IndIPD=      0 C=  3.073714D-01  0.000000D+00                             NZ=T
 IS=    13 IAt=     3 ISR=     3 T=0 IP=      1 IndIP=     24 IndIPD=      0 C=  1.293356D-01  0.000000D+00                             NZ=T
 IS=    14 IAt=     3 ISR=     4 T=1 IP=      1 IndIP=     25 IndIPD=      0 C=  0.000000D+00  9.948708D-01                             NZ=T
 IS=    15 IAt=     4 ISR=     1 T=0 IP=      1 IndIP=     26 IndIPD=      0 C=  2.550693D-01  0.000000D+00                             NZ=T
 IS=    15 IAt=     4 ISR=     1 T=0 IP=      2 IndIP=     27 IndIPD=      1 C=  4.601087D-01  0.000000D+00                             NZ=T
 IS=    15 IAt=     4 ISR=     1 T=0 IP=      3 IndIP=     28 IndIPD=      2 C=  6.783214D-01  0.000000D+00                             NZ=T
 IS=    16 IAt=     4 ISR=     2 T=0 IP=      1 IndIP=     29 IndIPD=      0 C=  3.073714D-01  0.000000D+00                             NZ=T
 IS=    17 IAt=     4 ISR=     3 T=0 IP=      1 IndIP=     30 IndIPD=      0 C=  1.293356D-01  0.000000D+00                             NZ=T
 IS=    18 IAt=     4 ISR=     4 T=1 IP=      1 IndIP=     31 IndIPD=      0 C=  0.000000D+00  9.948708D-01                             NZ=T
 IS=    19 IAt=     5 ISR=     1 T=0 IP=      1 IndIP=     32 IndIPD=      0 C=  2.550693D-01  0.000000D+00                             NZ=T
 IS=    19 IAt=     5 ISR=     1 T=0 IP=      2 IndIP=     33 IndIPD=      1 C=  4.601087D-01  0.000000D+00                             NZ=T
 IS=    19 IAt=     5 ISR=     1 T=0 IP=      3 IndIP=     34 IndIPD=      2 C=  6.783214D-01  0.000000D+00                             NZ=T
 IS=    20 IAt=     5 ISR=     2 T=0 IP=      1 IndIP=     35 IndIPD=      0 C=  3.073714D-01  0.000000D+00                             NZ=T
 IS=    21 IAt=     5 ISR=     3 T=0 IP=      1 IndIP=     36 IndIPD=      0 C=  1.293356D-01  0.000000D+00                             NZ=T
 IS=    22 IAt=     5 ISR=     4 T=1 IP=      1 IndIP=     37 IndIPD=      0 C=  0.000000D+00  9.948708D-01                             NZ=T
 IExCor=  402 DFT=T Ex+Corr=B3LYP ExCW=0 ScaHFX=  0.200000
 ScaDFX=  0.800000  0.720000  1.000000  0.810000 ScalE2=  1.000000  1.000000
 IRadAn=      5 IRanWt=     -1 IRanGd=            0 ICorTp=0 IEmpDi=131
 NAtoms=    5 NActive=    5 NUniq=    2 SFac= 4.00D+00 NAtFMM=   60 NAOKFM=F Big=F
 Integral buffers will be    131072 words long.
 Raffenetti 2 integral format.
 Two-electron integral symmetry is turned on.
 R6Disp:  Grimme-D3 Dispersion energy=       -0.0001537666 Hartrees.
 Nuclear repulsion after empirical dispersion term =       13.4393741234 Hartrees.
 Leave Link  301 at Thu Sep  5 15:46:12 2024, MaxMem=  1342177280 cpu:               0.4 elap:               0.1
 (Enter /opt/g16/l302.exe)
 NPDir=0 NMtPBC=     1 NCelOv=     1 NCel=       1 NClECP=     1 NCelD=      1
         NCelK=      1 NCelE2=     1 NClLst=     1 CellRange=     0.0.
 One-electron integrals computed using PRISM.
 One-electron integral symmetry used in STVInt
 Entering OneElI...
 Calculate overlap and kinetic energy integrals
    NBasis =  46  MinDer = 0  MaxDer = 0
 Requested accuracy = 0.1000D-12
 Symmetry will be used
 PrmmSu-InSpLW:  IPartL=    0 NPrtUS=    6 NPrtUL=    1 DoSpLW=F IThBeg=    0 IThEnd=    5 NThAct=    6.
 PrsmSu:  NPrtUS=   6 ThrOK=T IAlg=1 NPAlg=2 LenDen=           0 ISkipM=0 DoSpLW=F IThBeg=    0 IThEnd=    5.
 Prism:   IPart=     0 DynPar=F LinDyn=F Incr=           1.
 PRISM was handed   223683880 working-precision words and   253 shell-pairs
 PRISM was handed   223683880 working-precision words and   253 shell-pairs
 PRISM was handed   223683880 working-precision words and   253 shell-pairs
 PRISM was handed   223683880 working-precision words and   253 shell-pairs
 PRISM was handed   223683880 working-precision words and   253 shell-pairs
 PRISM was handed   223683880 working-precision words and   253 shell-pairs
 IPart=  5 NShTot=           3 NBatch=           3 AvBLen=         1.0
 IPart=  3 NShTot=           6 NBatch=           6 AvBLen=         1.0
 IPart=  4 NShTot=           4 NBatch=           4 AvBLen=         1.0
 IPart=  2 NShTot=          10 NBatch=          10 AvBLen=         1.0
 IPart=  1 NShTot=          14 NBatch=          14 AvBLen=         1.0
 IPart=  0 NShTot=          28 NBatch=          28 AvBLen=         1.0
 PrSmSu:  NxtVal=              7.
 *** Overlap *** 
                1             2             3             4             5 
      1  0.100000D+01
      2  0.878444D+00  0.100000D+01
      3  0.000000D+00  0.000000D+00  0.100000D+01
      4  0.000000D+00  0.000000D+00  0.000000D+00  0.100000D+01
      5  0.000000D+00  0.000000D+00  0.000000D+00  0.000000D+00  0.100000D+01
      6  0.329179D+00  0.418800D+00  0.000000D+00  0.000000D+00  0.000000D+00
      7  0.000000D+00  0.000000D+00  0.629120D+00  0.000000D+00  0.000000D+00
      8  0.000000D+00  0.000000D+00  0.000000D+00  0.629120D+00  0.000000D+00
      9  0.000000D+00  0.000000D+00  0.000000D+00  0.000000D+00  0.629120D+00
     10  0.153761D+00  0.187145D+00  0.000000D+00  0.000000D+00  0.000000D+00
     11  0.000000D+00  0.000000D+00  0.220230D+00  0.000000D+00  0.000000D+00
     12  0.000000D+00  0.000000D+00  0.000000D+00  0.220230D+00  0.000000D+00
     13  0.000000D+00  0.000000D+00  0.000000D+00  0.000000D+00  0.220230D+00
     14  0.655625D-01  0.783157D-01  0.000000D+00  0.000000D+00  0.000000D+00
     15  0.000000D+00  0.000000D+00  0.573499D-01  0.000000D+00  0.000000D+00
     16  0.000000D+00  0.000000D+00  0.000000D+00  0.573499D-01  0.000000D+00
     17  0.000000D+00  0.000000D+00  0.000000D+00  0.000000D+00  0.573499D-01
     18  0.000000D+00  0.000000D+00  0.000000D+00  0.000000D+00  0.000000D+00
     19  0.000000D+00  0.000000D+00  0.000000D+00  0.000000D+00  0.000000D+00
     20  0.000000D+00  0.000000D+00  0.000000D+00  0.000000D+00  0.000000D+00
     21  0.000000D+00  0.000000D+00  0.000000D+00  0.000000D+00  0.000000D+00
     22  0.000000D+00  0.000000D+00  0.000000D+00  0.000000D+00  0.000000D+00
     23  0.117769D-01  0.106503D-01  0.615753D-01  0.615753D-01  0.615753D-01
     24  0.741642D-01  0.888668D-01  0.101435D+00  0.101435D+00  0.101435D+00
     25  0.792398D-01  0.951986D-01  0.384804D-01  0.384804D-01  0.384804D-01
     26 -0.507912D-01 -0.610329D-01 -0.399416D-01 -0.133110D+00 -0.133110D+00
     27 -0.507912D-01 -0.610329D-01 -0.133110D+00 -0.399416D-01 -0.133110D+00
     28 -0.507912D-01 -0.610329D-01 -0.133110D+00 -0.133110D+00 -0.399416D-01
     29  0.117769D-01  0.106503D-01 -0.615753D-01 -0.615753D-01  0.615753D-01
     30  0.741642D-01  0.888668D-01 -0.101435D+00 -0.101435D+00  0.101435D+00
     31  0.792398D-01  0.951986D-01 -0.384804D-01 -0.384804D-01  0.384804D-01
     32  0.507912D-01  0.610329D-01 -0.399416D-01 -0.133110D+00  0.133110D+00
     33  0.507912D-01  0.610329D-01 -0.133110D+00 -0.399416D-01  0.133110D+00
     34 -0.507912D-01 -0.610329D-01  0.133110D+00  0.133110D+00 -0.399416D-01
     35  0.117769D-01  0.106503D-01  0.615753D-01 -0.615753D-01 -0.615753D-01
     36  0.741642D-01  0.888668D-01  0.101435D+00 -0.101435D+00 -0.101435D+00
     37  0.792398D-01  0.951986D-01  0.384804D-01 -0.384804D-01 -0.384804D-01
     38 -0.507912D-01 -0.610329D-01 -0.399416D-01  0.133110D+00  0.133110D+00
     39  0.507912D-01  0.610329D-01  0.133110D+00 -0.399416D-01 -0.133110D+00
     40  0.507912D-01  0.610329D-01  0.133110D+00 -0.133110D+00 -0.399416D-01
     41  0.117769D-01  0.106503D-01 -0.615753D-01  0.615753D-01 -0.615753D-01
     42  0.741642D-01  0.888668D-01 -0.101435D+00  0.101435D+00 -0.101435D+00
     43  0.792398D-01  0.951986D-01 -0.384804D-01  0.384804D-01 -0.384804D-01
     44  0.507912D-01  0.610329D-01 -0.399416D-01  0.133110D+00 -0.133110D+00
     45 -0.507912D-01 -0.610329D-01  0.133110D+00 -0.399416D-01  0.133110D+00
     46  0.507912D-01  0.610329D-01 -0.133110D+00  0.133110D+00 -0.399416D-01
                6             7             8             9            10 
      6  0.100000D+01
      7  0.000000D+00  0.100000D+01
      8  0.000000D+00  0.000000D+00  0.100000D+01
      9  0.000000D+00  0.000000D+00  0.000000D+00  0.100000D+01
     10  0.774697D+00  0.000000D+00  0.000000D+00  0.000000D+00  0.100000D+01
     11  0.000000D+00  0.653461D+00  0.000000D+00  0.000000D+00  0.000000D+00
     12  0.000000D+00  0.000000D+00  0.653461D+00  0.000000D+00  0.000000D+00
     13  0.000000D+00  0.000000D+00  0.000000D+00  0.653461D+00  0.000000D+00
     14  0.410096D+00  0.000000D+00  0.000000D+00  0.000000D+00  0.774408D+00
     15  0.000000D+00  0.226365D+00  0.000000D+00  0.000000D+00  0.000000D+00
     16  0.000000D+00  0.000000D+00  0.226365D+00  0.000000D+00  0.000000D+00
     17  0.000000D+00  0.000000D+00  0.000000D+00  0.226365D+00  0.000000D+00
     18  0.000000D+00  0.000000D+00  0.000000D+00  0.000000D+00  0.000000D+00
     19  0.000000D+00  0.000000D+00  0.000000D+00  0.000000D+00  0.000000D+00
     20  0.000000D+00  0.000000D+00  0.000000D+00  0.000000D+00  0.000000D+00
     21  0.000000D+00  0.000000D+00  0.000000D+00  0.000000D+00  0.000000D+00
     22  0.000000D+00  0.000000D+00  0.000000D+00  0.000000D+00  0.000000D+00
     23  0.187321D+00  0.222944D+00  0.222944D+00  0.222944D+00  0.266449D+00
     24  0.425560D+00  0.283268D+00  0.283268D+00  0.283268D+00  0.579718D+00
     25  0.462934D+00  0.134140D+00  0.134140D+00  0.134140D+00  0.757248D+00
     26 -0.223881D+00  0.457790D-01 -0.225058D+00 -0.225058D+00 -0.126534D+00
     27 -0.223881D+00 -0.225058D+00  0.457790D-01 -0.225058D+00 -0.126534D+00
     28 -0.223881D+00 -0.225058D+00 -0.225058D+00  0.457790D-01 -0.126534D+00
     29  0.187321D+00 -0.222944D+00 -0.222944D+00  0.222944D+00  0.266449D+00
     30  0.425560D+00 -0.283268D+00 -0.283268D+00  0.283268D+00  0.579718D+00
     31  0.462934D+00 -0.134140D+00 -0.134140D+00  0.134140D+00  0.757248D+00
     32  0.223881D+00  0.457790D-01 -0.225058D+00  0.225058D+00  0.126534D+00
     33  0.223881D+00 -0.225058D+00  0.457790D-01  0.225058D+00  0.126534D+00
     34 -0.223881D+00  0.225058D+00  0.225058D+00  0.457790D-01 -0.126534D+00
     35  0.187321D+00  0.222944D+00 -0.222944D+00 -0.222944D+00  0.266449D+00
     36  0.425560D+00  0.283268D+00 -0.283268D+00 -0.283268D+00  0.579718D+00
     37  0.462934D+00  0.134140D+00 -0.134140D+00 -0.134140D+00  0.757248D+00
     38 -0.223881D+00  0.457790D-01  0.225058D+00  0.225058D+00 -0.126534D+00
     39  0.223881D+00  0.225058D+00  0.457790D-01 -0.225058D+00  0.126534D+00
     40  0.223881D+00  0.225058D+00 -0.225058D+00  0.457790D-01  0.126534D+00
     41  0.187321D+00 -0.222944D+00  0.222944D+00 -0.222944D+00  0.266449D+00
     42  0.425560D+00 -0.283268D+00  0.283268D+00 -0.283268D+00  0.579718D+00
     43  0.462934D+00 -0.134140D+00  0.134140D+00 -0.134140D+00  0.757248D+00
     44  0.223881D+00  0.457790D-01  0.225058D+00 -0.225058D+00  0.126534D+00
     45 -0.223881D+00  0.225058D+00  0.457790D-01  0.225058D+00 -0.126534D+00
     46  0.223881D+00 -0.225058D+00  0.225058D+00  0.457790D-01  0.126534D+00
               11            12            13            14            15 
     11  0.100000D+01
     12  0.000000D+00  0.100000D+01
     13  0.000000D+00  0.000000D+00  0.100000D+01
     14  0.000000D+00  0.000000D+00  0.000000D+00  0.100000D+01
     15  0.653055D+00  0.000000D+00  0.000000D+00  0.000000D+00  0.100000D+01
     16  0.000000D+00  0.653055D+00  0.000000D+00  0.000000D+00  0.000000D+00
     17  0.000000D+00  0.000000D+00  0.653055D+00  0.000000D+00  0.000000D+00
     18  0.000000D+00  0.000000D+00  0.000000D+00  0.000000D+00  0.000000D+00
     19  0.000000D+00  0.000000D+00  0.000000D+00  0.000000D+00  0.000000D+00
     20  0.000000D+00  0.000000D+00  0.000000D+00  0.000000D+00  0.000000D+00
     21  0.000000D+00  0.000000D+00  0.000000D+00  0.000000D+00  0.000000D+00
     22  0.000000D+00  0.000000D+00  0.000000D+00  0.000000D+00  0.000000D+00
     23  0.216312D+00  0.216312D+00  0.216312D+00  0.176303D+00  0.847169D-01
     24  0.363519D+00  0.363519D+00  0.363519D+00  0.441200D+00  0.193535D+00
     25  0.284236D+00  0.284236D+00  0.284236D+00  0.769078D+00  0.268320D+00
     26  0.182810D+00 -0.961351D-01 -0.961351D-01 -0.294190D-01  0.104407D+00
     27 -0.961351D-01  0.182810D+00 -0.961351D-01 -0.294190D-01 -0.138317D-01
     28 -0.961351D-01 -0.961351D-01  0.182810D+00 -0.294190D-01 -0.138317D-01
     29 -0.216312D+00 -0.216312D+00  0.216312D+00  0.176303D+00 -0.847169D-01
     30 -0.363519D+00 -0.363519D+00  0.363519D+00  0.441200D+00 -0.193535D+00
     31 -0.284236D+00 -0.284236D+00  0.284236D+00  0.769078D+00 -0.268320D+00
     32  0.182810D+00 -0.961351D-01  0.961351D-01  0.294190D-01  0.104407D+00
     33 -0.961351D-01  0.182810D+00  0.961351D-01  0.294190D-01 -0.138317D-01
     34  0.961351D-01  0.961351D-01  0.182810D+00 -0.294190D-01  0.138317D-01
     35  0.216312D+00 -0.216312D+00 -0.216312D+00  0.176303D+00  0.847169D-01
     36  0.363519D+00 -0.363519D+00 -0.363519D+00  0.441200D+00  0.193535D+00
     37  0.284236D+00 -0.284236D+00 -0.284236D+00  0.769078D+00  0.268320D+00
     38  0.182810D+00  0.961351D-01  0.961351D-01 -0.294190D-01  0.104407D+00
     39  0.961351D-01  0.182810D+00 -0.961351D-01  0.294190D-01  0.138317D-01
     40  0.961351D-01 -0.961351D-01  0.182810D+00  0.294190D-01  0.138317D-01
     41 -0.216312D+00  0.216312D+00 -0.216312D+00  0.176303D+00 -0.847169D-01
     42 -0.363519D+00  0.363519D+00 -0.363519D+00  0.441200D+00 -0.193535D+00
     43 -0.284236D+00  0.284236D+00 -0.284236D+00  0.769078D+00 -0.268320D+00
     44  0.182810D+00  0.961351D-01 -0.961351D-01  0.294190D-01  0.104407D+00
     45  0.961351D-01  0.182810D+00  0.961351D-01 -0.294190D-01  0.138317D-01
     46 -0.961351D-01  0.961351D-01  0.182810D+00  0.294190D-01 -0.138317D-01
               16            17            18            19            20 
     16  0.100000D+01
     17  0.000000D+00  0.100000D+01
     18  0.000000D+00  0.000000D+00  0.100000D+01
     19  0.000000D+00  0.000000D+00  0.000000D+00  0.100000D+01
     20  0.000000D+00  0.000000D+00  0.000000D+00  0.000000D+00  0.100000D+01
     21  0.000000D+00  0.000000D+00  0.000000D+00  0.000000D+00  0.000000D+00
     22  0.000000D+00  0.000000D+00  0.000000D+00  0.000000D+00  0.000000D+00
     23  0.847169D-01  0.847169D-01  0.000000D+00  0.237228D+00  0.237228D+00
     24  0.193535D+00  0.193535D+00  0.000000D+00  0.154539D+00  0.154539D+00
     25  0.268320D+00  0.268320D+00  0.000000D+00  0.280957D-01  0.280957D-01
     26 -0.138317D-01 -0.138317D-01 -0.137904D+00  0.847579D-02 -0.230382D+00
     27  0.104407D+00 -0.138317D-01 -0.137904D+00 -0.230382D+00  0.847579D-02
     28 -0.138317D-01  0.104407D+00  0.275809D+00  0.847579D-02  0.847579D-02
     29 -0.847169D-01  0.847169D-01  0.000000D+00 -0.237228D+00 -0.237228D+00
     30 -0.193535D+00  0.193535D+00  0.000000D+00 -0.154539D+00 -0.154539D+00
     31 -0.268320D+00  0.268320D+00  0.000000D+00 -0.280957D-01 -0.280957D-01
     32 -0.138317D-01  0.138317D-01  0.137904D+00  0.847579D-02 -0.230382D+00
     33  0.104407D+00  0.138317D-01  0.137904D+00 -0.230382D+00  0.847579D-02
     34  0.138317D-01  0.104407D+00  0.275809D+00 -0.847579D-02 -0.847579D-02
     35 -0.847169D-01 -0.847169D-01  0.000000D+00 -0.237228D+00  0.237228D+00
     36 -0.193535D+00 -0.193535D+00  0.000000D+00 -0.154539D+00  0.154539D+00
     37 -0.268320D+00 -0.268320D+00  0.000000D+00 -0.280957D-01  0.280957D-01
     38  0.138317D-01  0.138317D-01 -0.137904D+00 -0.847579D-02 -0.230382D+00
     39  0.104407D+00 -0.138317D-01  0.137904D+00 -0.230382D+00 -0.847579D-02
     40 -0.138317D-01  0.104407D+00 -0.275809D+00  0.847579D-02 -0.847579D-02
     41  0.847169D-01 -0.847169D-01  0.000000D+00  0.237228D+00 -0.237228D+00
     42  0.193535D+00 -0.193535D+00  0.000000D+00  0.154539D+00 -0.154539D+00
     43  0.268320D+00 -0.268320D+00  0.000000D+00  0.280957D-01 -0.280957D-01
     44  0.138317D-01 -0.138317D-01  0.137904D+00 -0.847579D-02 -0.230382D+00
     45  0.104407D+00  0.138317D-01 -0.137904D+00 -0.230382D+00 -0.847579D-02
     46  0.138317D-01  0.104407D+00 -0.275809D+00 -0.847579D-02  0.847579D-02
               21            22            23            24            25 
     21  0.100000D+01
     22  0.000000D+00  0.100000D+01
     23  0.000000D+00  0.237228D+00  0.100000D+01
     24  0.000000D+00  0.154539D+00  0.706377D+00  0.100000D+01
     25  0.000000D+00  0.280957D-01  0.373664D+00  0.788963D+00  0.100000D+01
     26  0.238857D+00  0.847579D-02  0.000000D+00  0.000000D+00  0.000000D+00
     27 -0.238857D+00  0.847579D-02  0.000000D+00  0.000000D+00  0.000000D+00
     28  0.000000D+00 -0.230382D+00  0.000000D+00  0.000000D+00  0.000000D+00
     29  0.000000D+00  0.237228D+00  0.104235D-02  0.381948D-01  0.127850D+00
     30  0.000000D+00  0.154539D+00  0.381948D-01  0.158475D+00  0.326198D+00
     31  0.000000D+00  0.280957D-01  0.127850D+00  0.326198D+00  0.559421D+00
     32 -0.238857D+00 -0.847579D-02  0.121836D-01  0.842346D-01  0.938287D-01
     33  0.238857D+00 -0.847579D-02  0.121836D-01  0.842346D-01  0.938287D-01
     34  0.000000D+00 -0.230382D+00  0.000000D+00  0.000000D+00  0.000000D+00
     35  0.000000D+00 -0.237228D+00  0.104235D-02  0.381948D-01  0.127850D+00
     36  0.000000D+00 -0.154539D+00  0.381948D-01  0.158475D+00  0.326198D+00
     37  0.000000D+00 -0.280957D-01  0.127850D+00  0.326198D+00  0.559421D+00
     38  0.238857D+00 -0.847579D-02  0.000000D+00  0.000000D+00  0.000000D+00
     39  0.238857D+00  0.847579D-02  0.121836D-01  0.842346D-01  0.938287D-01
     40  0.000000D+00 -0.230382D+00  0.121836D-01  0.842346D-01  0.938287D-01
     41  0.000000D+00 -0.237228D+00  0.104235D-02  0.381948D-01  0.127850D+00
     42  0.000000D+00 -0.154539D+00  0.381948D-01  0.158475D+00  0.326198D+00
     43  0.000000D+00 -0.280957D-01  0.127850D+00  0.326198D+00  0.559421D+00
     44 -0.238857D+00  0.847579D-02  0.121836D-01  0.842346D-01  0.938287D-01
     45 -0.238857D+00 -0.847579D-02  0.000000D+00  0.000000D+00  0.000000D+00
     46  0.000000D+00 -0.230382D+00  0.121836D-01  0.842346D-01  0.938287D-01
               26            27            28            29            30 
     26  0.100000D+01
     27  0.000000D+00  0.100000D+01
     28  0.000000D+00  0.000000D+00  0.100000D+01
     29 -0.121836D-01 -0.121836D-01  0.000000D+00  0.100000D+01
     30 -0.842346D-01 -0.842346D-01  0.000000D+00  0.706377D+00  0.100000D+01
     31 -0.938287D-01 -0.938287D-01  0.000000D+00  0.373664D+00  0.788963D+00
     32 -0.466751D-01 -0.610803D-01  0.000000D+00  0.000000D+00  0.000000D+00
     33 -0.610803D-01 -0.466751D-01  0.000000D+00  0.000000D+00  0.000000D+00
     34  0.000000D+00  0.000000D+00  0.144052D-01  0.000000D+00  0.000000D+00
     35  0.000000D+00 -0.121836D-01 -0.121836D-01  0.104235D-02  0.381948D-01
     36  0.000000D+00 -0.842346D-01 -0.842346D-01  0.381948D-01  0.158475D+00
     37  0.000000D+00 -0.938287D-01 -0.938287D-01  0.127850D+00  0.326198D+00
     38  0.144052D-01  0.000000D+00  0.000000D+00 -0.121836D-01 -0.842346D-01
     39  0.000000D+00 -0.466751D-01 -0.610803D-01  0.000000D+00  0.000000D+00
     40  0.000000D+00 -0.610803D-01 -0.466751D-01  0.121836D-01  0.842346D-01
     41 -0.121836D-01  0.000000D+00 -0.121836D-01  0.104235D-02  0.381948D-01
     42 -0.842346D-01  0.000000D+00 -0.842346D-01  0.381948D-01  0.158475D+00
     43 -0.938287D-01  0.000000D+00 -0.938287D-01  0.127850D+00  0.326198D+00
     44 -0.466751D-01  0.000000D+00 -0.610803D-01  0.000000D+00  0.000000D+00
     45  0.000000D+00  0.144052D-01  0.000000D+00 -0.121836D-01 -0.842346D-01
     46 -0.610803D-01  0.000000D+00 -0.466751D-01  0.121836D-01  0.842346D-01
               31            32            33            34            35 
     31  0.100000D+01
     32  0.000000D+00  0.100000D+01
     33  0.000000D+00  0.000000D+00  0.100000D+01
     34  0.000000D+00  0.000000D+00  0.000000D+00  0.100000D+01
     35  0.127850D+00  0.121836D-01  0.000000D+00 -0.121836D-01  0.100000D+01
     36  0.326198D+00  0.842346D-01  0.000000D+00 -0.842346D-01  0.706377D+00
     37  0.559421D+00  0.938287D-01  0.000000D+00 -0.938287D-01  0.373664D+00
     38 -0.938287D-01 -0.466751D-01  0.000000D+00  0.610803D-01  0.000000D+00
     39  0.000000D+00  0.000000D+00  0.144052D-01  0.000000D+00  0.000000D+00
     40  0.938287D-01  0.610803D-01  0.000000D+00 -0.466751D-01  0.000000D+00
     41  0.127850D+00  0.000000D+00  0.121836D-01 -0.121836D-01  0.104235D-02
     42  0.326198D+00  0.000000D+00  0.842346D-01 -0.842346D-01  0.381948D-01
     43  0.559421D+00  0.000000D+00  0.938287D-01 -0.938287D-01  0.127850D+00
     44  0.000000D+00  0.144052D-01  0.000000D+00  0.000000D+00  0.121836D-01
     45 -0.938287D-01  0.000000D+00 -0.466751D-01  0.610803D-01 -0.121836D-01
     46  0.938287D-01  0.000000D+00  0.610803D-01 -0.466751D-01  0.000000D+00
               36            37            38            39            40 
     36  0.100000D+01
     37  0.788963D+00  0.100000D+01
     38  0.000000D+00  0.000000D+00  0.100000D+01
     39  0.000000D+00  0.000000D+00  0.000000D+00  0.100000D+01
     40  0.000000D+00  0.000000D+00  0.000000D+00  0.000000D+00  0.100000D+01
     41  0.381948D-01  0.127850D+00 -0.121836D-01  0.121836D-01  0.000000D+00
     42  0.158475D+00  0.326198D+00 -0.842346D-01  0.842346D-01  0.000000D+00
     43  0.326198D+00  0.559421D+00 -0.938287D-01  0.938287D-01  0.000000D+00
     44  0.842346D-01  0.938287D-01 -0.466751D-01  0.610803D-01  0.000000D+00
     45 -0.842346D-01 -0.938287D-01  0.610803D-01 -0.466751D-01  0.000000D+00
     46  0.000000D+00  0.000000D+00  0.000000D+00  0.000000D+00  0.144052D-01
               41            42            43            44            45 
     41  0.100000D+01
     42  0.706377D+00  0.100000D+01
     43  0.373664D+00  0.788963D+00  0.100000D+01
     44  0.000000D+00  0.000000D+00  0.000000D+00  0.100000D+01
     45  0.000000D+00  0.000000D+00  0.000000D+00  0.000000D+00  0.100000D+01
     46  0.000000D+00  0.000000D+00  0.000000D+00  0.000000D+00  0.000000D+00
               46 
     46  0.100000D+01
 *** Kinetic Energy *** 
                1             2             3             4             5 
      1  0.276046D+02
      2  0.104135D+02  0.819637D+01
      3  0.000000D+00  0.000000D+00  0.489404D+01
      4  0.000000D+00  0.000000D+00  0.000000D+00  0.489404D+01
      5  0.000000D+00  0.000000D+00  0.000000D+00  0.000000D+00  0.489404D+01
      6  0.420602D+00  0.554278D+00  0.000000D+00  0.000000D+00  0.000000D+00
      7  0.000000D+00  0.000000D+00  0.116619D+01  0.000000D+00  0.000000D+00
      8  0.000000D+00  0.000000D+00  0.000000D+00  0.116619D+01  0.000000D+00
      9  0.000000D+00  0.000000D+00  0.000000D+00  0.000000D+00  0.116619D+01
     10  0.641647D-01  0.794435D-01  0.000000D+00  0.000000D+00  0.000000D+00
     11  0.000000D+00  0.000000D+00  0.146500D+00  0.000000D+00  0.000000D+00
     12  0.000000D+00  0.000000D+00  0.000000D+00  0.146500D+00  0.000000D+00
     13  0.000000D+00  0.000000D+00  0.000000D+00  0.000000D+00  0.146500D+00
     14  0.849070D-02  0.102021D-01  0.000000D+00  0.000000D+00  0.000000D+00
     15  0.000000D+00  0.000000D+00  0.122105D-01  0.000000D+00  0.000000D+00
     16  0.000000D+00  0.000000D+00  0.000000D+00  0.122105D-01  0.000000D+00
     17  0.000000D+00  0.000000D+00  0.000000D+00  0.000000D+00  0.122105D-01
     18  0.000000D+00  0.000000D+00  0.000000D+00  0.000000D+00  0.000000D+00
     19  0.000000D+00  0.000000D+00  0.000000D+00  0.000000D+00  0.000000D+00
     20  0.000000D+00  0.000000D+00  0.000000D+00  0.000000D+00  0.000000D+00
     21  0.000000D+00  0.000000D+00  0.000000D+00  0.000000D+00  0.000000D+00
     22  0.000000D+00  0.000000D+00  0.000000D+00  0.000000D+00  0.000000D+00
     23 -0.381849D-01 -0.502139D-01 -0.369574D-01 -0.369574D-01 -0.369574D-01
     24  0.106015D-01  0.110030D-01  0.741062D-01  0.741062D-01  0.741062D-01
     25  0.169849D-01  0.205718D-01  0.155023D-01  0.155023D-01  0.155023D-01
     26  0.852896D-02  0.213510D-01 -0.147413D+00 -0.179873D+00 -0.179873D+00
     27  0.852896D-02  0.213510D-01 -0.179873D+00 -0.147413D+00 -0.179873D+00
     28  0.852896D-02  0.213510D-01 -0.179873D+00 -0.179873D+00 -0.147413D+00
     29 -0.381849D-01 -0.502139D-01  0.369574D-01  0.369574D-01 -0.369574D-01
     30  0.106015D-01  0.110030D-01 -0.741062D-01 -0.741062D-01  0.741062D-01
     31  0.169849D-01  0.205718D-01 -0.155023D-01 -0.155023D-01  0.155023D-01
     32 -0.852896D-02 -0.213510D-01 -0.147413D+00 -0.179873D+00  0.179873D+00
     33 -0.852896D-02 -0.213510D-01 -0.179873D+00 -0.147413D+00  0.179873D+00
     34  0.852896D-02  0.213510D-01  0.179873D+00  0.179873D+00 -0.147413D+00
     35 -0.381849D-01 -0.502139D-01 -0.369574D-01  0.369574D-01  0.369574D-01
     36  0.106015D-01  0.110030D-01  0.741062D-01 -0.741062D-01 -0.741062D-01
     37  0.169849D-01  0.205718D-01  0.155023D-01 -0.155023D-01 -0.155023D-01
     38  0.852896D-02  0.213510D-01 -0.147413D+00  0.179873D+00  0.179873D+00
     39 -0.852896D-02 -0.213510D-01  0.179873D+00 -0.147413D+00 -0.179873D+00
     40 -0.852896D-02 -0.213510D-01  0.179873D+00 -0.179873D+00 -0.147413D+00
     41 -0.381849D-01 -0.502139D-01  0.369574D-01 -0.369574D-01  0.369574D-01
     42  0.106015D-01  0.110030D-01 -0.741062D-01  0.741062D-01 -0.741062D-01
     43  0.169849D-01  0.205718D-01 -0.155023D-01  0.155023D-01 -0.155023D-01
     44 -0.852896D-02 -0.213510D-01 -0.147413D+00  0.179873D+00 -0.179873D+00
     45  0.852896D-02  0.213510D-01  0.179873D+00 -0.147413D+00  0.179873D+00
     46 -0.852896D-02 -0.213510D-01 -0.179873D+00  0.179873D+00 -0.147413D+00
                6             7             8             9            10 
      6  0.725184D+00
      7  0.000000D+00  0.120864D+01
      8  0.000000D+00  0.000000D+00  0.120864D+01
      9  0.000000D+00  0.000000D+00  0.000000D+00  0.120864D+01
     10  0.260044D+00  0.000000D+00  0.000000D+00  0.000000D+00  0.218377D+00
     11  0.000000D+00  0.365582D+00  0.000000D+00  0.000000D+00  0.000000D+00
     12  0.000000D+00  0.000000D+00  0.365582D+00  0.000000D+00  0.000000D+00
     13  0.000000D+00  0.000000D+00  0.000000D+00  0.365582D+00  0.000000D+00
     14  0.494102D-01  0.000000D+00  0.000000D+00  0.000000D+00  0.782233D-01
     15  0.000000D+00  0.454558D-01  0.000000D+00  0.000000D+00  0.000000D+00
     16  0.000000D+00  0.000000D+00  0.454558D-01  0.000000D+00  0.000000D+00
     17  0.000000D+00  0.000000D+00  0.000000D+00  0.454558D-01  0.000000D+00
     18  0.000000D+00  0.000000D+00  0.000000D+00  0.000000D+00  0.000000D+00
     19  0.000000D+00  0.000000D+00  0.000000D+00  0.000000D+00  0.000000D+00
     20  0.000000D+00  0.000000D+00  0.000000D+00  0.000000D+00  0.000000D+00
     21  0.000000D+00  0.000000D+00  0.000000D+00  0.000000D+00  0.000000D+00
     22  0.000000D+00  0.000000D+00  0.000000D+00  0.000000D+00  0.000000D+00
     23  0.212276D-02  0.157017D+00  0.157017D+00  0.157017D+00  0.657623D-01
     24  0.111770D+00  0.184674D+00  0.184674D+00  0.184674D+00  0.125224D+00
     25  0.894918D-01  0.486636D-01  0.486636D-01  0.486636D-01  0.113537D+00
     26 -0.164999D+00 -0.985794D-01 -0.298185D+00 -0.298185D+00 -0.611845D-01
     27 -0.164999D+00 -0.298185D+00 -0.985794D-01 -0.298185D+00 -0.611845D-01
     28 -0.164999D+00 -0.298185D+00 -0.298185D+00 -0.985794D-01 -0.611845D-01
     29  0.212276D-02 -0.157017D+00 -0.157017D+00  0.157017D+00  0.657623D-01
     30  0.111770D+00 -0.184674D+00 -0.184674D+00  0.184674D+00  0.125224D+00
     31  0.894918D-01 -0.486636D-01 -0.486636D-01  0.486636D-01  0.113537D+00
     32  0.164999D+00 -0.985794D-01 -0.298185D+00  0.298185D+00  0.611845D-01
     33  0.164999D+00 -0.298185D+00 -0.985794D-01  0.298185D+00  0.611845D-01
     34 -0.164999D+00  0.298185D+00  0.298185D+00 -0.985794D-01 -0.611845D-01
     35  0.212276D-02  0.157017D+00 -0.157017D+00 -0.157017D+00  0.657623D-01
     36  0.111770D+00  0.184674D+00 -0.184674D+00 -0.184674D+00  0.125224D+00
     37  0.894918D-01  0.486636D-01 -0.486636D-01 -0.486636D-01  0.113537D+00
     38 -0.164999D+00 -0.985794D-01  0.298185D+00  0.298185D+00 -0.611845D-01
     39  0.164999D+00  0.298185D+00 -0.985794D-01 -0.298185D+00  0.611845D-01
     40  0.164999D+00  0.298185D+00 -0.298185D+00 -0.985794D-01  0.611845D-01
     41  0.212276D-02 -0.157017D+00  0.157017D+00 -0.157017D+00  0.657623D-01
     42  0.111770D+00 -0.184674D+00  0.184674D+00 -0.184674D+00  0.125224D+00
     43  0.894918D-01 -0.486636D-01  0.486636D-01 -0.486636D-01  0.113537D+00
     44  0.164999D+00 -0.985794D-01  0.298185D+00 -0.298185D+00  0.611845D-01
     45 -0.164999D+00  0.298185D+00 -0.985794D-01  0.298185D+00 -0.611845D-01
     46  0.164999D+00 -0.298185D+00  0.298185D+00 -0.985794D-01  0.611845D-01
               11            12            13            14            15 
     11  0.363963D+00
     12  0.000000D+00  0.363963D+00
     13  0.000000D+00  0.000000D+00  0.363963D+00
     14  0.000000D+00  0.000000D+00  0.000000D+00  0.657000D-01
     15  0.109942D+00  0.000000D+00  0.000000D+00  0.000000D+00  0.109500D+00
     16  0.000000D+00  0.109942D+00  0.000000D+00  0.000000D+00  0.000000D+00
     17  0.000000D+00  0.000000D+00  0.109942D+00  0.000000D+00  0.000000D+00
     18  0.000000D+00  0.000000D+00  0.000000D+00  0.000000D+00  0.000000D+00
     19  0.000000D+00  0.000000D+00  0.000000D+00  0.000000D+00  0.000000D+00
     20  0.000000D+00  0.000000D+00  0.000000D+00  0.000000D+00  0.000000D+00
     21  0.000000D+00  0.000000D+00  0.000000D+00  0.000000D+00  0.000000D+00
     22  0.000000D+00  0.000000D+00  0.000000D+00  0.000000D+00  0.000000D+00
     23  0.109796D+00  0.109796D+00  0.109796D+00  0.196954D-01  0.166311D-01
     24  0.151682D+00  0.151682D+00  0.151682D+00  0.455266D-01  0.349152D-01
     25  0.768575D-01  0.768575D-01  0.768575D-01  0.647014D-01  0.390528D-01
     26  0.649548D-01 -0.699266D-01 -0.699266D-01 -0.566001D-02  0.189424D-01
     27 -0.699266D-01  0.649548D-01 -0.699266D-01 -0.566001D-02 -0.380593D-02
     28 -0.699266D-01 -0.699266D-01  0.649548D-01 -0.566001D-02 -0.380593D-02
     29 -0.109796D+00 -0.109796D+00  0.109796D+00  0.196954D-01 -0.166311D-01
     30 -0.151682D+00 -0.151682D+00  0.151682D+00  0.455266D-01 -0.349152D-01
     31 -0.768575D-01 -0.768575D-01  0.768575D-01  0.647014D-01 -0.390528D-01
     32  0.649548D-01 -0.699266D-01  0.699266D-01  0.566001D-02  0.189424D-01
     33 -0.699266D-01  0.649548D-01  0.699266D-01  0.566001D-02 -0.380593D-02
     34  0.699266D-01  0.699266D-01  0.649548D-01 -0.566001D-02  0.380593D-02
     35  0.109796D+00 -0.109796D+00 -0.109796D+00  0.196954D-01  0.166311D-01
     36  0.151682D+00 -0.151682D+00 -0.151682D+00  0.455266D-01  0.349152D-01
     37  0.768575D-01 -0.768575D-01 -0.768575D-01  0.647014D-01  0.390528D-01
     38  0.649548D-01  0.699266D-01  0.699266D-01 -0.566001D-02  0.189424D-01
     39  0.699266D-01  0.649548D-01 -0.699266D-01  0.566001D-02  0.380593D-02
     40  0.699266D-01 -0.699266D-01  0.649548D-01  0.566001D-02  0.380593D-02
     41 -0.109796D+00  0.109796D+00 -0.109796D+00  0.196954D-01 -0.166311D-01
     42 -0.151682D+00  0.151682D+00 -0.151682D+00  0.455266D-01 -0.349152D-01
     43 -0.768575D-01  0.768575D-01 -0.768575D-01  0.647014D-01 -0.390528D-01
     44  0.649548D-01  0.699266D-01 -0.699266D-01  0.566001D-02  0.189424D-01
     45  0.699266D-01  0.649548D-01  0.699266D-01 -0.566001D-02  0.380593D-02
     46 -0.699266D-01  0.699266D-01  0.649548D-01  0.566001D-02 -0.380593D-02
               16            17            18            19            20 
     16  0.109500D+00
     17  0.000000D+00  0.109500D+00
     18  0.000000D+00  0.000000D+00  0.219100D+01
     19  0.000000D+00  0.000000D+00  0.000000D+00  0.219100D+01
     20  0.000000D+00  0.000000D+00  0.000000D+00  0.000000D+00  0.219100D+01
     21  0.000000D+00  0.000000D+00  0.000000D+00  0.000000D+00  0.000000D+00
     22  0.000000D+00  0.000000D+00  0.000000D+00  0.000000D+00  0.000000D+00
     23  0.166311D-01  0.166311D-01  0.000000D+00  0.337895D+00  0.337895D+00
     24  0.349152D-01  0.349152D-01  0.000000D+00  0.171636D+00  0.171636D+00
     25  0.390528D-01  0.390528D-01  0.000000D+00  0.155014D-01  0.155014D-01
     26 -0.380593D-02 -0.380593D-02 -0.193225D+00 -0.145340D+00 -0.480014D+00
     27  0.189424D-01 -0.380593D-02 -0.193225D+00 -0.480014D+00 -0.145340D+00
     28 -0.380593D-02  0.189424D-01  0.386449D+00 -0.145340D+00 -0.145340D+00
     29 -0.166311D-01  0.166311D-01  0.000000D+00 -0.337895D+00 -0.337895D+00
     30 -0.349152D-01  0.349152D-01  0.000000D+00 -0.171636D+00 -0.171636D+00
     31 -0.390528D-01  0.390528D-01  0.000000D+00 -0.155014D-01 -0.155014D-01
     32 -0.380593D-02  0.380593D-02  0.193225D+00 -0.145340D+00 -0.480014D+00
     33  0.189424D-01  0.380593D-02  0.193225D+00 -0.480014D+00 -0.145340D+00
     34  0.380593D-02  0.189424D-01  0.386449D+00  0.145340D+00  0.145340D+00
     35 -0.166311D-01 -0.166311D-01  0.000000D+00 -0.337895D+00  0.337895D+00
     36 -0.349152D-01 -0.349152D-01  0.000000D+00 -0.171636D+00  0.171636D+00
     37 -0.390528D-01 -0.390528D-01  0.000000D+00 -0.155014D-01  0.155014D-01
     38  0.380593D-02  0.380593D-02 -0.193225D+00  0.145340D+00 -0.480014D+00
     39  0.189424D-01 -0.380593D-02  0.193225D+00 -0.480014D+00  0.145340D+00
     40 -0.380593D-02  0.189424D-01 -0.386449D+00 -0.145340D+00  0.145340D+00
     41  0.166311D-01 -0.166311D-01  0.000000D+00  0.337895D+00 -0.337895D+00
     42  0.349152D-01 -0.349152D-01  0.000000D+00  0.171636D+00 -0.171636D+00
     43  0.390528D-01 -0.390528D-01  0.000000D+00  0.155014D-01 -0.155014D-01
     44  0.380593D-02 -0.380593D-02  0.193225D+00  0.145340D+00 -0.480014D+00
     45  0.189424D-01  0.380593D-02 -0.193225D+00 -0.480014D+00  0.145340D+00
     46  0.380593D-02  0.189424D-01 -0.386449D+00  0.145340D+00 -0.145340D+00
               21            22            23            24            25 
     21  0.219100D+01
     22  0.000000D+00  0.219100D+01
     23  0.000000D+00  0.337895D+00  0.230435D+01
     24  0.000000D+00  0.171636D+00  0.549119D+00  0.488760D+00
     25  0.000000D+00  0.155014D-01  0.106346D+00  0.184881D+00  0.154112D+00
     26  0.334675D+00 -0.145340D+00  0.000000D+00  0.000000D+00  0.000000D+00
     27 -0.334675D+00 -0.145340D+00  0.000000D+00  0.000000D+00  0.000000D+00
     28  0.000000D+00 -0.480014D+00  0.000000D+00  0.000000D+00  0.000000D+00
     29  0.000000D+00  0.337895D+00 -0.616079D-02 -0.277486D-01  0.103631D-01
     30  0.000000D+00  0.171636D+00 -0.277486D-01 -0.176681D-01  0.314310D-01
     31  0.000000D+00  0.155014D-01  0.103631D-01  0.314310D-01  0.528285D-01
     32 -0.334675D+00  0.145340D+00 -0.303238D-01 -0.261919D-02  0.250671D-01
     33  0.334675D+00  0.145340D+00 -0.303238D-01 -0.261919D-02  0.250671D-01
     34  0.000000D+00 -0.480014D+00  0.000000D+00  0.000000D+00  0.000000D+00
     35  0.000000D+00 -0.337895D+00 -0.616079D-02 -0.277486D-01  0.103631D-01
     36  0.000000D+00 -0.171636D+00 -0.277486D-01 -0.176681D-01  0.314310D-01
     37  0.000000D+00 -0.155014D-01  0.103631D-01  0.314310D-01  0.528285D-01
     38  0.334675D+00  0.145340D+00  0.000000D+00  0.000000D+00  0.000000D+00
     39  0.334675D+00 -0.145340D+00 -0.303238D-01 -0.261919D-02  0.250671D-01
     40  0.000000D+00 -0.480014D+00 -0.303238D-01 -0.261919D-02  0.250671D-01
     41  0.000000D+00 -0.337895D+00 -0.616079D-02 -0.277486D-01  0.103631D-01
     42  0.000000D+00 -0.171636D+00 -0.277486D-01 -0.176681D-01  0.314310D-01
     43  0.000000D+00 -0.155014D-01  0.103631D-01  0.314310D-01  0.528285D-01
     44 -0.334675D+00 -0.145340D+00 -0.303238D-01 -0.261919D-02  0.250671D-01
     45 -0.334675D+00  0.145340D+00  0.000000D+00  0.000000D+00  0.000000D+00
     46  0.000000D+00 -0.480014D+00 -0.303238D-01 -0.261919D-02  0.250671D-01
               26            27            28            29            30 
     26  0.187500D+01
     27  0.000000D+00  0.187500D+01
     28  0.000000D+00  0.000000D+00  0.187500D+01
     29  0.303238D-01  0.303238D-01  0.000000D+00  0.230435D+01
     30  0.261919D-02  0.261919D-02  0.000000D+00  0.549119D+00  0.488760D+00
     31 -0.250671D-01 -0.250671D-01  0.000000D+00  0.106346D+00  0.184881D+00
     32  0.151068D-01  0.339073D-01  0.000000D+00  0.000000D+00  0.000000D+00
     33  0.339073D-01  0.151068D-01  0.000000D+00  0.000000D+00  0.000000D+00
     34  0.000000D+00  0.000000D+00 -0.188006D-01  0.000000D+00  0.000000D+00
     35  0.000000D+00  0.303238D-01  0.303238D-01 -0.616079D-02 -0.277486D-01
     36  0.000000D+00  0.261919D-02  0.261919D-02 -0.277486D-01 -0.176681D-01
     37  0.000000D+00 -0.250671D-01 -0.250671D-01  0.103631D-01  0.314310D-01
     38 -0.188006D-01  0.000000D+00  0.000000D+00  0.303238D-01  0.261919D-02
     39  0.000000D+00  0.151068D-01  0.339073D-01  0.000000D+00  0.000000D+00
     40  0.000000D+00  0.339073D-01  0.151068D-01 -0.303238D-01 -0.261919D-02
     41  0.303238D-01  0.000000D+00  0.303238D-01 -0.616079D-02 -0.277486D-01
     42  0.261919D-02  0.000000D+00  0.261919D-02 -0.277486D-01 -0.176681D-01
     43 -0.250671D-01  0.000000D+00 -0.250671D-01  0.103631D-01  0.314310D-01
     44  0.151068D-01  0.000000D+00  0.339073D-01  0.000000D+00  0.000000D+00
     45  0.000000D+00 -0.188006D-01  0.000000D+00  0.303238D-01  0.261919D-02
     46  0.339073D-01  0.000000D+00  0.151068D-01 -0.303238D-01 -0.261919D-02
               31            32            33            34            35 
     31  0.154112D+00
     32  0.000000D+00  0.187500D+01
     33  0.000000D+00  0.000000D+00  0.187500D+01
     34  0.000000D+00  0.000000D+00  0.000000D+00  0.187500D+01
     35  0.103631D-01 -0.303238D-01  0.000000D+00  0.303238D-01  0.230435D+01
     36  0.314310D-01 -0.261919D-02  0.000000D+00  0.261919D-02  0.549119D+00
     37  0.528285D-01  0.250671D-01  0.000000D+00 -0.250671D-01  0.106346D+00
     38 -0.250671D-01  0.151068D-01  0.000000D+00 -0.339073D-01  0.000000D+00
     39  0.000000D+00  0.000000D+00 -0.188006D-01  0.000000D+00  0.000000D+00
     40  0.250671D-01 -0.339073D-01  0.000000D+00  0.151068D-01  0.000000D+00
     41  0.103631D-01  0.000000D+00 -0.303238D-01  0.303238D-01 -0.616079D-02
     42  0.314310D-01  0.000000D+00 -0.261919D-02  0.261919D-02 -0.277486D-01
     43  0.528285D-01  0.000000D+00  0.250671D-01 -0.250671D-01  0.103631D-01
     44  0.000000D+00 -0.188006D-01  0.000000D+00  0.000000D+00 -0.303238D-01
     45 -0.250671D-01  0.000000D+00  0.151068D-01 -0.339073D-01  0.303238D-01
     46  0.250671D-01  0.000000D+00 -0.339073D-01  0.151068D-01  0.000000D+00
               36            37            38            39            40 
     36  0.488760D+00
     37  0.184881D+00  0.154112D+00
     38  0.000000D+00  0.000000D+00  0.187500D+01
     39  0.000000D+00  0.000000D+00  0.000000D+00  0.187500D+01
     40  0.000000D+00  0.000000D+00  0.000000D+00  0.000000D+00  0.187500D+01
     41 -0.277486D-01  0.103631D-01  0.303238D-01 -0.303238D-01  0.000000D+00
     42 -0.176681D-01  0.314310D-01  0.261919D-02 -0.261919D-02  0.000000D+00
     43  0.314310D-01  0.528285D-01 -0.250671D-01  0.250671D-01  0.000000D+00
     44 -0.261919D-02  0.250671D-01  0.151068D-01 -0.339073D-01  0.000000D+00
     45  0.261919D-02 -0.250671D-01 -0.339073D-01  0.151068D-01  0.000000D+00
     46  0.000000D+00  0.000000D+00  0.000000D+00  0.000000D+00 -0.188006D-01
               41            42            43            44            45 
     41  0.230435D+01
     42  0.549119D+00  0.488760D+00
     43  0.106346D+00  0.184881D+00  0.154112D+00
     44  0.000000D+00  0.000000D+00  0.000000D+00  0.187500D+01
     45  0.000000D+00  0.000000D+00  0.000000D+00  0.000000D+00  0.187500D+01
     46  0.000000D+00  0.000000D+00  0.000000D+00  0.000000D+00  0.000000D+00
               46 
     46  0.187500D+01
 Entering OneElI...
 Calculate potential energy integrals
    NBasis =  46  MinDer = 0  MaxDer = 0
 Requested accuracy = 0.1000D-12
 Symmetry will be used
 PrmmSu-InSpLW:  IPartL=    0 NPrtUS=    6 NPrtUL=    1 DoSpLW=F IThBeg=    0 IThEnd=    5 NThAct=    6.
 PrsmSu:  NPrtUS=   6 ThrOK=T IAlg=1 NPAlg=2 LenDen=           0 ISkipM=0 DoSpLW=F IThBeg=    0 IThEnd=    5.
 Prism:   IPart=     0 DynPar=F LinDyn=F Incr=           2.
 PRISM was handed   223684866 working-precision words and   253 shell-pairs
 PRISM was handed   223684866 working-precision words and   253 shell-pairs
 PRISM was handed   223684866 working-precision words and   253 shell-pairs
 PRISM was handed   223684866 working-precision words and   253 shell-pairs
 PRISM was handed   223684866 working-precision words and   253 shell-pairs
 PRISM was handed   223684866 working-precision words and   253 shell-pairs
 IPart=  3 NShTot=          30 NBatch=           6 AvBLen=         5.0
 IPart=  5 NShTot=          15 NBatch=           3 AvBLen=         5.0
[...]
  34        4PZ         0.00183   0.00122   0.00122   0.00010   0.00065
  35 4   H  1S          0.01419   0.01363   0.01363   0.01363   0.01264
  36        2S          0.03816   0.02416   0.02416   0.02416   0.03263
  37        3S          0.00135   0.00535   0.00535   0.00535   0.00128
  38        4PX         0.00183   0.00010   0.00122   0.00122   0.00065
  39        4PY         0.00183   0.00122   0.00010   0.00122   0.00065
  40        4PZ         0.00183   0.00122   0.00122   0.00010   0.00065
  41 5   H  1S          0.01419   0.01363   0.01363   0.01363   0.01264
  42        2S          0.03816   0.02416   0.02416   0.02416   0.03263
  43        3S          0.00135   0.00535   0.00535   0.00535   0.00128
  44        4PX         0.00183   0.00010   0.00122   0.00122   0.00065
  45        4PY         0.00183   0.00122   0.00010   0.00122   0.00065
  46        4PZ         0.00183   0.00122   0.00122   0.00010   0.00065
                          11        12        13        14        15
  11        4PX         0.07944
  12        4PY        -0.00000   0.07944
  13        4PZ         0.00000   0.00000   0.07944
  14        5S          0.00000   0.00000   0.00000   0.00076
  15        5PX         0.00355   0.00000  -0.00000   0.00000   0.00037
  16        5PY         0.00000   0.00355   0.00000   0.00000   0.00000
  17        5PZ        -0.00000   0.00000   0.00355   0.00000  -0.00000
  18        6D 0        0.00000   0.00000   0.00000   0.00000   0.00000
  19        6D+1        0.00000   0.00000   0.00000   0.00000   0.00000
  20        6D-1        0.00000   0.00000   0.00000  -0.00000   0.00000
  21        6D+2        0.00000   0.00000   0.00000  -0.00000   0.00000
  22        6D-2        0.00000   0.00000   0.00000   0.00000   0.00000
  23 2   H  1S          0.00906   0.00906   0.00906   0.00058   0.00024
  24        2S          0.02125   0.02125   0.02125   0.00174   0.00077
  25        3S          0.00776   0.00776   0.00776   0.00007   0.00050
  26        4PX         0.00028   0.00036   0.00036   0.00001   0.00001
  27        4PY         0.00036   0.00028   0.00036   0.00001   0.00000
  28        4PZ         0.00036   0.00036   0.00028   0.00001   0.00000
  29 3   H  1S          0.00906   0.00906   0.00906   0.00058   0.00024
  30        2S          0.02125   0.02125   0.02125   0.00174   0.00077
  31        3S          0.00776   0.00776   0.00776   0.00007   0.00050
  32        4PX         0.00028   0.00036   0.00036   0.00001   0.00001
  33        4PY         0.00036   0.00028   0.00036   0.00001   0.00000
  34        4PZ         0.00036   0.00036   0.00028   0.00001   0.00000
  35 4   H  1S          0.00906   0.00906   0.00906   0.00058   0.00024
  36        2S          0.02125   0.02125   0.02125   0.00174   0.00077
  37        3S          0.00776   0.00776   0.00776   0.00007   0.00050
  38        4PX         0.00028   0.00036   0.00036   0.00001   0.00001
  39        4PY         0.00036   0.00028   0.00036   0.00001   0.00000
  40        4PZ         0.00036   0.00036   0.00028   0.00001   0.00000
  41 5   H  1S          0.00906   0.00906   0.00906   0.00058   0.00024
  42        2S          0.02125   0.02125   0.02125   0.00174   0.00077
  43        3S          0.00776   0.00776   0.00776   0.00007   0.00050
  44        4PX         0.00028   0.00036   0.00036   0.00001   0.00001
  45        4PY         0.00036   0.00028   0.00036   0.00001   0.00000
  46        4PZ         0.00036   0.00036   0.00028   0.00001   0.00000
                          16        17        18        19        20
  16        5PY         0.00037
  17        5PZ         0.00000   0.00037
  18        6D 0        0.00000   0.00000   0.00000
  19        6D+1        0.00000   0.00000   0.00000   0.00113
  20        6D-1        0.00000   0.00000  -0.00000   0.00000   0.00113
  21        6D+2        0.00000   0.00000   0.00000   0.00000  -0.00000
  22        6D-2        0.00000   0.00000   0.00000   0.00000   0.00000
  23 2   H  1S          0.00024   0.00024   0.00000   0.00118   0.00118
  24        2S          0.00077   0.00077   0.00000   0.00108   0.00108
  25        3S          0.00050   0.00050  -0.00000   0.00009   0.00009
  26        4PX         0.00000   0.00000   0.00000  -0.00000  -0.00004
  27        4PY         0.00001   0.00000  -0.00000  -0.00004  -0.00000
  28        4PZ         0.00000   0.00001  -0.00000  -0.00000  -0.00000
  29 3   H  1S          0.00024   0.00024   0.00000   0.00118   0.00118
  30        2S          0.00077   0.00077   0.00000   0.00108   0.00108
  31        3S          0.00050   0.00050  -0.00000   0.00009   0.00009
  32        4PX         0.00000   0.00000  -0.00000  -0.00000  -0.00004
  33        4PY         0.00001   0.00000   0.00000  -0.00004  -0.00000
  34        4PZ         0.00000   0.00001  -0.00000  -0.00000  -0.00000
  35 4   H  1S          0.00024   0.00024  -0.00000   0.00118   0.00118
  36        2S          0.00077   0.00077   0.00000   0.00108   0.00108
  37        3S          0.00050   0.00050  -0.00000   0.00009   0.00009
  38        4PX         0.00000   0.00000  -0.00000  -0.00000  -0.00004
  39        4PY         0.00001   0.00000  -0.00000  -0.00004  -0.00000
  40        4PZ         0.00000   0.00001   0.00000  -0.00000  -0.00000
  41 5   H  1S          0.00024   0.00024   0.00000   0.00118   0.00118
  42        2S          0.00077   0.00077  -0.00000   0.00108   0.00108
  43        3S          0.00050   0.00050   0.00000   0.00009   0.00009
  44        4PX         0.00000   0.00000   0.00000  -0.00000  -0.00004
  45        4PY         0.00001   0.00000   0.00000  -0.00004  -0.00000
  46        4PZ         0.00000   0.00001  -0.00000  -0.00000  -0.00000
                          21        22        23        24        25
  21        6D+2        0.00000
  22        6D-2       -0.00000   0.00113
  23 2   H  1S          0.00000   0.00118   0.08111
  24        2S          0.00000   0.00108   0.07775   0.14991
  25        3S         -0.00000   0.00009   0.01635   0.04806   0.02822
  26        4PX         0.00000  -0.00000   0.00000   0.00000   0.00000
  27        4PY        -0.00000  -0.00000   0.00000   0.00000   0.00000
  28        4PZ        -0.00000  -0.00004   0.00000   0.00000   0.00000
  29 3   H  1S          0.00000   0.00118  -0.00001  -0.00050  -0.00177
  30        2S          0.00000   0.00108  -0.00050  -0.00350  -0.00635
  31        3S         -0.00000   0.00009  -0.00177  -0.00635  -0.00523
  32        4PX         0.00000  -0.00000   0.00003   0.00026   0.00005
  33        4PY        -0.00000  -0.00000   0.00003   0.00026   0.00005
  34        4PZ        -0.00000  -0.00004  -0.00000  -0.00000  -0.00000
  35 4   H  1S          0.00000   0.00118  -0.00001  -0.00050  -0.00177
  36        2S          0.00000   0.00108  -0.00050  -0.00350  -0.00635
  37        3S         -0.00000   0.00009  -0.00177  -0.00635  -0.00523
  38        4PX        -0.00000  -0.00000  -0.00000  -0.00000  -0.00000
  39        4PY         0.00000  -0.00000   0.00003   0.00026   0.00005
  40        4PZ        -0.00000  -0.00004   0.00003   0.00026   0.00005
  41 5   H  1S          0.00000   0.00118  -0.00001  -0.00050  -0.00177
  42        2S         -0.00000   0.00108  -0.00050  -0.00350  -0.00635
  43        3S          0.00000   0.00009  -0.00177  -0.00635  -0.00523
  44        4PX        -0.00000  -0.00000   0.00003   0.00026   0.00005
  45        4PY         0.00000  -0.00000  -0.00000  -0.00000  -0.00000
  46        4PZ         0.00000  -0.00004   0.00003   0.00026   0.00005
                          26        27        28        29        30
  26        4PX         0.00055
  27        4PY         0.00000   0.00055
  28        4PZ        -0.00000   0.00000   0.00055
  29 3   H  1S          0.00003   0.00003  -0.00000   0.08111
  30        2S          0.00026   0.00026  -0.00000   0.07775   0.14991
  31        3S          0.00005   0.00005  -0.00000   0.01635   0.04806
  32        4PX         0.00001   0.00003   0.00000   0.00000   0.00000
  33        4PY         0.00003   0.00001  -0.00000   0.00000   0.00000
  34        4PZ        -0.00000   0.00000  -0.00000   0.00000   0.00000
  35 4   H  1S          0.00000   0.00003   0.00003  -0.00001  -0.00050
  36        2S          0.00000   0.00026   0.00026  -0.00050  -0.00350
  37        3S          0.00000   0.00005   0.00005  -0.00177  -0.00635
  38        4PX        -0.00000   0.00000   0.00000   0.00003   0.00026
  39        4PY        -0.00000   0.00001   0.00003   0.00000   0.00000
  40        4PZ        -0.00000   0.00003   0.00001   0.00003   0.00026
  41 5   H  1S          0.00003  -0.00000   0.00003  -0.00001  -0.00050
  42        2S          0.00026  -0.00000   0.00026  -0.00050  -0.00350
  43        3S          0.00005  -0.00000   0.00005  -0.00177  -0.00635
  44        4PX         0.00001   0.00000   0.00003  -0.00000  -0.00000
  45        4PY        -0.00000  -0.00000  -0.00000   0.00003   0.00026
  46        4PZ         0.00003   0.00000   0.00001   0.00003   0.00026
                          31        32        33        34        35
  31        3S          0.02822
  32        4PX         0.00000   0.00055
  33        4PY         0.00000   0.00000   0.00055
  34        4PZ         0.00000   0.00000  -0.00000   0.00055
  35 4   H  1S         -0.00177   0.00003   0.00000   0.00003   0.08111
  36        2S         -0.00635   0.00026   0.00000   0.00026   0.07775
  37        3S         -0.00523   0.00005   0.00000   0.00005   0.01635
  38        4PX         0.00005   0.00001  -0.00000   0.00003   0.00000
  39        4PY         0.00000   0.00000  -0.00000  -0.00000   0.00000
  40        4PZ         0.00005   0.00003   0.00000   0.00001   0.00000
  41 5   H  1S         -0.00177   0.00000   0.00003   0.00003  -0.00001
  42        2S         -0.00635   0.00000   0.00026   0.00026  -0.00050
  43        3S         -0.00523   0.00000   0.00005   0.00005  -0.00177
  44        4PX        -0.00000  -0.00000   0.00000   0.00000   0.00003
  45        4PY         0.00005  -0.00000   0.00001   0.00003   0.00003
  46        4PZ         0.00005  -0.00000   0.00003   0.00001  -0.00000
                          36        37        38        39        40
  36        2S          0.14991
  37        3S          0.04806   0.02822
  38        4PX         0.00000   0.00000   0.00055
  39        4PY         0.00000   0.00000  -0.00000   0.00055
  40        4PZ         0.00000   0.00000  -0.00000  -0.00000   0.00055
  41 5   H  1S         -0.00050  -0.00177   0.00003   0.00003  -0.00000
  42        2S         -0.00350  -0.00635   0.00026   0.00026  -0.00000
  43        3S         -0.00635  -0.00523   0.00005   0.00005  -0.00000
  44        4PX         0.00026   0.00005   0.00001   0.00003   0.00000
  45        4PY         0.00026   0.00005   0.00003   0.00001  -0.00000
  46        4PZ        -0.00000  -0.00000  -0.00000   0.00000  -0.00000
                          41        42        43        44        45
  41 5   H  1S          0.08111
  42        2S          0.07775   0.14991
  43        3S          0.01635   0.04806   0.02822
  44        4PX         0.00000   0.00000   0.00000   0.00055
  45        4PY         0.00000   0.00000   0.00000   0.00000   0.00055
  46        4PZ         0.00000   0.00000   0.00000   0.00000   0.00000
                          46
  46        4PZ         0.00055
     Gross orbital populations:
                           1
   1 1   C  1S          1.10311
   2        2S          0.88554
   3        2PX         0.22124
   4        2PY         0.22124
   5        2PZ         0.22124
   6        3S          0.73876
   7        3PX         0.50460
   8        3PY         0.50460
   9        3PZ         0.50460
  10        4S          0.51196
  11        4PX         0.33302
  12        4PY         0.33302
  13        4PZ         0.33302
  14        5S          0.02411
  15        5PX         0.01219
  16        5PY         0.01219
  17        5PZ         0.01219
  18        6D 0        0.00000
  19        6D+1        0.01035
  20        6D-1        0.01035
  21        6D+2        0.00000
  22        6D-2        0.01035
  23 2   H  1S          0.27574
  24        2S          0.47351
  25        3S          0.10039
  26        4PX         0.00781
  27        4PY         0.00781
  28        4PZ         0.00781
  29 3   H  1S          0.27574
  30        2S          0.47351
  31        3S          0.10039
  32        4PX         0.00781
  33        4PY         0.00781
  34        4PZ         0.00781
  35 4   H  1S          0.27574
  36        2S          0.47351
  37        3S          0.10039
  38        4PX         0.00781
  39        4PY         0.00781
  40        4PZ         0.00781
  41 5   H  1S          0.27574
  42        2S          0.47351
  43        3S          0.10039
  44        4PX         0.00781
  45        4PY         0.00781
  46        4PZ         0.00781
          Condensed to atoms (all electrons):
               1          2          3          4          5
     1  C    4.901414   0.401564   0.401564   0.401564   0.401564
     2  H    0.401564   0.545205  -0.024562  -0.024562  -0.024562
     3  H    0.401564  -0.024562   0.545205  -0.024562  -0.024562
     4  H    0.401564  -0.024562  -0.024562   0.545205  -0.024562
     5  H    0.401564  -0.024562  -0.024562  -0.024562   0.545205
 Mulliken charges:
               1
     1  C   -0.507671
     2  H    0.126918
     3  H    0.126918
     4  H    0.126918
     5  H    0.126918
 Sum of Mulliken charges =  -0.00000
 Mulliken charges with hydrogens summed into heavy atoms:
               1
     1  C   -0.000000
 Electronic spatial extent (au):  <R**2>=             35.9043
 Charge=              0.0000 electrons
 Dipole moment (field-independent basis, Debye):
    X=              0.0000    Y=              0.0000    Z=              0.0000  Tot=              0.0000
 Quadrupole moment (field-independent basis, Debye-Ang):
   XX=             -8.4933   YY=             -8.4933   ZZ=             -8.4933
   XY=             -0.0000   XZ=              0.0000   YZ=             -0.0000
 Traceless Quadrupole moment (field-independent basis, Debye-Ang):
   XX=             -0.0000   YY=              0.0000   ZZ=              0.0000
   XY=             -0.0000   XZ=              0.0000   YZ=             -0.0000
 Octapole moment (field-independent basis, Debye-Ang**2):
  XXX=              0.0000  YYY=              0.0000  ZZZ=             -0.0000  XYY=              0.0000
  XXY=             -0.0000  XXZ=              0.0000  XZZ=             -0.0000  YZZ=              0.0000
  YYZ=             -0.0000  XYZ=              0.7326
 Hexadecapole moment (field-independent basis, Debye-Ang**3):
 XXXX=            -17.2823 YYYY=            -17.2823 ZZZZ=            -17.2823 XXXY=              0.0000
 XXXZ=             -0.0000 YYYX=             -0.0000 YYYZ=              0.0000 ZZZX=              0.0000
 ZZZY=             -0.0000 XXYY=             -5.2499 XXZZ=             -5.2499 YYZZ=             -5.2499
 XXYZ=             -0.0000 YYXZ=             -0.0000 ZZXY=             -0.0000
 N-N= 1.343937412335D+01 E-N=-1.201329997011D+02  KE= 4.028527457460D+01
 Symmetry A    KE= 3.444270258246D+01
 Symmetry B1   KE= 1.947523997379D+00
 Symmetry B2   KE= 1.947523997379D+00
 Symmetry B3   KE= 1.947523997379D+00
 Orbital energies and kinetic energies (alpha):
                                 1                 2
   1         (A1)--O         -10.152576         15.954792
   2         (A1)--O          -0.696992          1.266559
   3         (T2)--O          -0.395587          0.973762
   4         (T2)--O          -0.395587          0.973762
   5         (T2)--O          -0.395587          0.973762
   6         (A1)--V           0.009599          0.294999
   7         (T2)--V           0.057134          0.202074
   8         (T2)--V           0.057134          0.202074
   9         (T2)--V           0.057134          0.202074
  10         (T2)--V           0.146145          0.647135
  11         (T2)--V           0.146145          0.647135
  12         (T2)--V           0.146145          0.647135
  13         (A1)--V           0.210925          0.766828
  14         (T2)--V           0.400460          0.804260
  15         (T2)--V           0.400460          0.804260
  16         (T2)--V           0.400460          0.804260
  17         (T2)--V           0.595551          1.837566
  18         (T2)--V           0.595551          1.837566
  19         (T2)--V           0.595551          1.837566
  20         (A1)--V           0.604938          1.284976
  21         (A1)--V           0.824321          2.446056
  22         (E)--V            0.964407          1.723452
  23         (E)--V            0.964407          1.723452
  24         (T1)--V           1.455097          2.085103
  25         (T1)--V           1.455097          2.085103
  26         (T1)--V           1.455097          2.085103
  27         (T2)--V           1.533114          2.370473
  28         (T2)--V           1.533114          2.370473
  29         (T2)--V           1.533114          2.370473
  30         (T2)--V           1.902266          2.867255
  31         (T2)--V           1.902266          2.867255
  32         (T2)--V           1.902266          2.867255
  33         (A1)--V           2.278702          3.997259
  34         (E)--V            2.315557          3.145867
  35         (E)--V            2.315557          3.145867
  36         (T2)--V           2.476558          3.890423
  37         (T2)--V           2.476558          3.890423
  38         (T2)--V           2.476558          3.890423
  39         (T2)--V           2.544520          4.664537
  40         (T2)--V           2.544520          4.664537
  41         (T2)--V           2.544520          4.664537
  42         (A1)--V           2.874683          4.536048
  43         (T2)--V           3.793702          6.293908
  44         (T2)--V           3.793702          6.293908
  45         (T2)--V           3.793702          6.293908
  46         (A1)--V          24.022814         60.388742
 Total kinetic energy from orbitals= 4.028527457460D+01
 No NMR shielding tensors so no spin-rotation constants.
 Leave Link  601 at Thu Sep  5 15:46:14 2024, MaxMem=  1342177280 cpu:               1.3 elap:               0.3
 (Enter /opt/g16/l604.exe)
 Evaluate density.
 Using the total density.
 Monte-Carlo method of calculating molar volume:
 based on  0.001 e/bohr**3 density envelope.
 Number of points per bohr**3 =  100 CutOff= 1.00D-04
 Using the SCF density.
 There are      1302 points.  Will hold      1302 in memory.
 LenV=  1342108669 MDV=  1342177280.
 Box volume = 2209.956 fraction occupied=0.119
 Integrated density= 1.0243184821918884D+01 error= 2.4318482191888435D-01
 Molar volume =  263.090 bohr**3/mol ( 23.478 cm**3/mol)
 Recommended a0 for SCRF calculation =  2.82 angstrom (  5.32 bohr)
 Leave Link  604 at Thu Sep  5 15:46:14 2024, MaxMem=  1342177280 cpu:               1.6 elap:               0.3
 (Enter /opt/g16/l9999.exe)

 Test job not archived.
 1\1\GINC-BOHRIUM-11729-1173855\SP\RB3LYP\6-311+G(d,p)\C1H4\ROOT\05-Sep
 -2024\0\\#P b3lyp/6-311+g(d,p) em=gd3 volume=tight IOp(5/33=3, 3/33=1)
  pop=full\\Gaussian input prepared by ASE\\0,1\C,0,0.,0.,0.\H,0,0.6291
 18,0.629118,0.629118\H,0,-0.629118,-0.629118,0.629118\H,0,0.629118,-0.
 629118,-0.629118\H,0,-0.629118,0.629118,-0.629118\\Version=ES64L-G16Re
 vA.03\State=1-A1\HF=-40.5340775\RMSD=1.409e-09\Dipole=0.,0.,0.\Quadrup
 ole=0.,0.,0.,0.,0.,0.\PG=TD [O(C1),4C3(H1)]\\@


 CONTRAIWISE...CONTINUED TWEEDLEDEE, IF IT WAS SO, IT MIGHT BE,
 AND IF IT WERE SO, IT WOULD BE.....
 BUT AS IT ISN'T, IT AIN'T....
 THAT'S LOGIC.....
 ALICE THROUGH THE LOOKING GLASS
 Job cpu time:       0 days  0 hours  0 minutes 11.8 seconds.
 Elapsed time:       0 days  0 hours  0 minutes  2.7 seconds.
 File lengths (MBytes):  RWF=      6 Int=      0 D2E=      0 Chk=      1 Scr=      1
 Normal termination of Gaussian 16 at Thu Sep  5 15:46:14 2024.
